Fe BCC                                  
   3.00000000000000     
    -0.500000    0.500000    0.500000
     0.500000   -0.500000    0.500000
     0.500000    0.500000   -0.500000
   Fe
     1
Direct
  0.000000  0.000000  0.000000
 
   36   36   36
 0.11478589782E+03 0.11242107724E+03 0.10563650312E+03 0.95282998469E+02 0.82548140798E+02
 0.68706723038E+02 0.54912263172E+02 0.42080785586E+02 0.30864401108E+02 0.21672053454E+02
 0.14689307792E+02 0.98759720592E+01 0.69571245143E+01 0.54432369279E+01 0.47057797390E+01
 0.42052216598E+01 0.38536670421E+01 0.36498357234E+01 0.35835522605E+01 0.36498357234E+01
 0.38536670421E+01 0.42052216598E+01 0.47057797390E+01 0.54432369279E+01 0.69571245143E+01
 0.98759720592E+01 0.14689307792E+02 0.21672053454E+02 0.30864401108E+02 0.42080785586E+02
 0.54912263172E+02 0.68706723038E+02 0.82548140798E+02 0.95282998469E+02 0.10563650312E+03
 0.11242107724E+03 0.11242107724E+03 0.11163886350E+03 0.10634676513E+03 0.97221358222E+02
 0.85346350532E+02 0.71972644293E+02 0.58292398435E+02 0.45292165495E+02 0.33700177056E+02
 0.23996031775E+02 0.16433549565E+02 0.11045177588E+02 0.76321876112E+01 0.57721381614E+01
 0.48753428758E+01 0.43320040382E+01 0.39349167833E+01 0.36863594423E+01 0.35768337170E+01
 0.35985747281E+01 0.37533142443E+01 0.40507285516E+01 0.44976073749E+01 0.51079259194E+01
 0.62543953199E+01 0.85737034335E+01 0.12609994912E+02 0.18714745971E+02 0.27008847197E+02
 0.37384940849E+02 0.49515064513E+02 0.62838791234E+02 0.76539938879E+02 0.89552532153E+02
 0.10064348658E+03 0.10859035430E+03 0.10563650312E+03 0.10634676513E+03 0.10268175273E+03
 0.95116972775E+02 0.84577509624E+02 0.72225414557E+02 0.59233305964E+02 0.46616207830E+02
 0.35152326280E+02 0.25375372145E+02 0.17594175982E+02 0.11902245349E+02 0.81706936340E+01
 0.60484212328E+01 0.50020981258E+01 0.44206723662E+01 0.39899045511E+01 0.37044851311E+01
 0.35564491082E+01 0.35358890101E+01 0.36411024276E+01 0.38800452045E+01 0.42630791250E+01
 0.47883226138E+01 0.56151738866E+01 0.73166642190E+01 0.10470309962E+02 0.15496881787E+02
 0.22601533800E+02 0.31762705610E+02 0.42739995820E+02 0.55071460595E+02 0.68055505201E+02
 0.80745843494E+02 0.92004704563E+02 0.10064348658E+03 0.95282998469E+02 0.97221358222E+02
 0.95116972775E+02 0.89247183666E+02 0.80348135859E+02 0.69441493353E+02 0.57623939554E+02
 0.45890889555E+02 0.35036055655E+02 0.25624148698E+02 0.18001857602E+02 0.12309160706E+02
 0.84761559046E+01 0.62203612840E+01 0.50740610803E+01 0.44635447066E+01 0.40127355327E+01
 0.37008584706E+01 0.35218475699E+01 0.34643408161E+01 0.35233381039E+01 0.37040923777E+01
 0.40182453813E+01 0.44721877632E+01 0.50872262836E+01 0.62421306319E+01 0.85159056793E+01
 0.12382206576E+02 0.18127553183E+02 0.25821138068E+02 0.35315525425E+02 0.46249755019E+02
 0.58040433283E+02 0.69875278800E+02 0.80745843494E+02 0.89552532153E+02 0.82548140798E+02
 0.85346350532E+02 0.84577509624E+02 0.80348135859E+02 0.73201951251E+02 0.63990280892E+02
 0.53689546661E+02 0.43230317060E+02 0.33384556208E+02 0.24720700412E+02 0.17603050871E+02
 0.12201315501E+02 0.84907501608E+01 0.62494882929E+01 0.50772230110E+01 0.44567425995E+01
 0.39998068047E+01 0.36731670194E+01 0.34725198061E+01 0.33856779104E+01 0.34047738298E+01
 0.35318131628E+01 0.37776074386E+01 0.41540197457E+01 0.46601058655E+01 0.54169804000E+01
 0.69183868047E+01 0.96647031199E+01 0.14011871287E+02 0.20119868128E+02 0.27938899034E+02
 0.37211334585E+02 0.47470777828E+02 0.58040433283E+02 0.68055505201E+02 0.76539938879E+02
 0.68706723038E+02 0.71972644293E+02 0.72225414557E+02 0.69441493353E+02 0.63990280892E+02
 0.56545579201E+02 0.47937129913E+02 0.38995730615E+02 0.30437999164E+02 0.22808853015E+02
 0.16469196067E+02 0.11601166121E+02 0.82101866908E+01 0.61237852135E+01 0.50050242739E+01
 0.44005426804E+01 0.39504356504E+01 0.36207599475E+01 0.34084709087E+01 0.33010787109E+01
 0.32884985505E+01 0.33694484541E+01 0.35523864045E+01 0.38510523566E+01 0.42744016842E+01
 0.48245429272E+01 0.57478233362E+01 0.75269227050E+01 0.10564372774E+02 0.15102389010E+02
 0.21190127971E+02 0.28676470987E+02 0.37211334585E+02 0.46249755019E+02 0.55071460595E+02
 0.62838791234E+02 0.54912263172E+02 0.58292398435E+02 0.59233305964E+02 0.57623939554E+02
 0.53689546661E+02 0.47937129913E+02 0.41041390882E+02 0.33712375971E+02 0.26586220483E+02
 0.20161278680E+02 0.14776180979E+02 0.10609705909E+02 0.76832476218E+01 0.58615055255E+01
 0.48631777029E+01 0.42990453330E+01 0.38669817082E+01 0.35449972367E+01 0.33306526692E+01
 0.32115815913E+01 0.31762633774E+01 0.32205356213E+01 0.33497409102E+01 0.35767095538E+01
 0.39153357862E+01 0.43697918479E+01 0.49652609973E+01 0.60198626035E+01 0.79489969358E+01
 0.11056986810E+02 0.15485244304E+02 0.21190127971E+02 0.27938899034E+02 0.35315525425E+02
 0.42739995820E+02 0.49515064513E+02 0.42080785586E+02 0.45292165495E+02 0.46616207830E+02
 0.45890889555E+02 0.43230317060E+02 0.38995730615E+02 0.33712375971E+02 0.27961974697E+02
 0.22285324844E+02 0.17117947510E+02 0.12761729737E+02 0.93795888622E+01 0.69971796894E+01
 0.55051271769E+01 0.46685603459E+01 0.41593923947E+01 0.37545067926E+01 0.34492565687E+01
 0.32412220801E+01 0.31185283520E+01 0.30690495835E+01 0.30864660558E+01 0.31729558811E+01
 0.33387622295E+01 0.35985397023E+01 0.39641996451E+01 0.44348201416E+01 0.50635780856E+01
 0.61736929809E+01 0.80998140508E+01 0.11056986810E+02 0.15102389010E+02 0.20119868128E+02
 0.25821138068E+02 0.31762705610E+02 0.37384940849E+02 0.30864401108E+02 0.33700177056E+02
 0.35152326280E+02 0.35036055655E+02 0.33384556208E+02 0.30437999164E+02 0.26586220483E+02
 0.22285324844E+02 0.17975318008E+02 0.14019883986E+02 0.10674995286E+02 0.80793489094E+01
 0.62545576529E+01 0.51082264245E+01 0.44430635156E+01 0.39908058185E+01 0.36201094980E+01
 0.33386120496E+01 0.31435456993E+01 0.30238671911E+01 0.29676517816E+01 0.29673082375E+01
 0.30223260393E+01 0.31397355818E+01 0.33323054675E+01 0.36142400838E+01 0.39943226571E+01
 0.44676298364E+01 0.50991448432E+01 0.61736929809E+01 0.79489969358E+01 0.10564372774E+02
 0.14011871287E+02 0.18127553183E+02 0.22601533800E+02 0.27008847197E+02 0.21672053454E+02
 0.23996031775E+02 0.25375372145E+02 0.25624148698E+02 0.24720700412E+02 0.22808853015E+02
 0.20161278680E+02 0.17117947510E+02 0.14019883986E+02 0.11156199675E+02 0.87326902492E+01
 0.68594051935E+01 0.55489977718E+01 0.47198341581E+01 0.42047973384E+01 0.38036329057E+01
 0.34720876200E+01 0.32192598575E+01 0.30419375931E+01 0.29302203606E+01 0.28730950816E+01
 0.28626046723E+01 0.28963234062E+01 0.29782232377E+01 0.31179807276E+01 0.33286141809E+01
 0.36222858138E+01 0.40044506648E+01 0.44676298364E+01 0.50635780856E+01 0.60198626035E+01
 0.75269227050E+01 0.96647031199E+01 0.12382206576E+02 0.15496881787E+02 0.18714745971E+02
 0.14689307792E+02 0.16433549565E+02 0.17594175982E+02 0.18001857602E+02 0.17603050871E+02
 0.16469196067E+02 0.14776180979E+02 0.12761729737E+02 0.10674995286E+02 0.87326902492E+01
 0.70900945567E+01 0.58272691128E+01 0.49456552914E+01 0.43705480638E+01 0.39605950677E+01
 0.36084592218E+01 0.33190497168E+01 0.30977971348E+01 0.29411831758E+01 0.28407004412E+01
 0.27867937888E+01 0.27719448286E+01 0.27926817039E+01 0.28505303168E+01 0.29519224813E+01
 0.31070216843E+01 0.33273691286E+01 0.36222858138E+01 0.39943226571E+01 0.44348201416E+01
 0.49652609973E+01 0.57478233362E+01 0.69183868047E+01 0.85159056793E+01 0.10470309962E+02
 0.12609994912E+02 0.98759720592E+01 0.11045177588E+02 0.11902245349E+02 0.12309160706E+02
 0.12201315501E+02 0.11601166121E+02 0.10609705909E+02 0.93795888622E+01 0.80793489094E+01
 0.68594051935E+01 0.58272691128E+01 0.50339116460E+01 0.44691022838E+01 0.40629259445E+01
 0.37166266881E+01 0.34152796293E+01 0.31690653037E+01 0.29804727334E+01 0.28459513197E+01
 0.27585346300E+01 0.27104544380E+01 0.26952404609E+01 0.27091833685E+01 0.27521635698E+01
 0.28278325217E+01 0.29431189843E+01 0.31070216843E+01 0.33286141809E+01 0.36142400838E+01
 0.39641996451E+01 0.43697918479E+01 0.48245429272E+01 0.54169804000E+01 0.62421306319E+01
 0.73166642190E+01 0.85737034335E+01 0.69571245143E+01 0.76321876112E+01 0.81706936340E+01
 0.84761559046E+01 0.84907501608E+01 0.82101866908E+01 0.76832476218E+01 0.69971796894E+01
 0.62545576529E+01 0.55489977718E+01 0.49456552914E+01 0.44691022838E+01 0.40982151099E+01
 0.37753654644E+01 0.34833991991E+01 0.32327360971E+01 0.30289371761E+01 0.28725304033E+01
 0.27602248970E+01 0.26866125156E+01 0.26458052110E+01 0.26327386882E+01 0.26441031080E+01
 0.26789283226E+01 0.27388214535E+01 0.28278325217E+01 0.29519224813E+01 0.31179807276E+01
 0.33323054675E+01 0.35985397023E+01 0.39153357862E+01 0.42744016842E+01 0.46601058655E+01
 0.50872262836E+01 0.56151738866E+01 0.62543953199E+01 0.54432369279E+01 0.57721381614E+01
 0.60484212328E+01 0.62203612840E+01 0.62494882929E+01 0.61237852135E+01 0.58615055255E+01
 0.55051271769E+01 0.51082264245E+01 0.47198341581E+01 0.43705480638E+01 0.40629259445E+01
 0.37753654644E+01 0.35077966424E+01 0.32697518522E+01 0.30675005675E+01 0.29036883987E+01
 0.27777541297E+01 0.26868780127E+01 0.26270958122E+01 0.25942828107E+01 0.25848806499E+01
 0.25963795839E+01 0.26276165453E+01 0.26789283226E+01 0.27521635698E+01 0.28505303168E+01
 0.29782232377E+01 0.31397355818E+01 0.33387622295E+01 0.35767095538E+01 0.38510523566E+01
 0.41540197457E+01 0.44721877632E+01 0.47883226138E+01 0.51079259194E+01 0.47057797390E+01
 0.48753428758E+01 0.50020981258E+01 0.50740610803E+01 0.50772230110E+01 0.50050242739E+01
 0.48631777029E+01 0.46685603459E+01 0.44430635156E+01 0.42047973384E+01 0.39605950677E+01
 0.37166266881E+01 0.34833991991E+01 0.32697518522E+01 0.30820608142E+01 0.29239279553E+01
 0.27963490863E+01 0.26982937772E+01 0.26274936553E+01 0.25812090744E+01 0.25568131867E+01
 0.25521400768E+01 0.25656336608E+01 0.25963795839E+01 0.26441031080E+01 0.27091833685E+01
 0.27926817039E+01 0.28963234062E+01 0.30223260393E+01 0.31729558811E+01 0.33497409102E+01
 0.35523864045E+01 0.37776074386E+01 0.40182453813E+01 0.42630791250E+01 0.44976073749E+01
 0.42052216598E+01 0.43320040382E+01 0.44206723662E+01 0.44635447066E+01 0.44567425995E+01
 0.44005426804E+01 0.42990453330E+01 0.41593923947E+01 0.39908058185E+01 0.38036329057E+01
 0.36084592218E+01 0.34152796293E+01 0.32327360971E+01 0.30675005675E+01 0.29239279553E+01
 0.28040751096E+01 0.27080817224E+01 0.26347950972E+01 0.25824558220E+01 0.25492722614E+01
 0.25337784439E+01 0.25349522461E+01 0.25521400768E+01 0.25848806499E+01 0.26327386882E+01
 0.26952404609E+01 0.27719448286E+01 0.28626046723E+01 0.29673082375E+01 0.30864660558E+01
 0.32205356213E+01 0.33694484541E+01 0.35318131628E+01 0.37040923777E+01 0.38800452045E+01
 0.40507285516E+01 0.38536670421E+01 0.39349167833E+01 0.39899045511E+01 0.40127355327E+01
 0.39998068047E+01 0.39504356504E+01 0.38669817082E+01 0.37545067926E+01 0.36201094980E+01
 0.34720876200E+01 0.33190497168E+01 0.31690653037E+01 0.30289371761E+01 0.29036883987E+01
 0.27963490863E+01 0.27080817224E+01 0.26386043342E+01 0.25867905074E+01 0.25512816860E+01
 0.25309594907E+01 0.25251838515E+01 0.25337784439E+01 0.25568131867E+01 0.25942828107E+01
 0.26458052110E+01 0.27104544380E+01 0.27867937888E+01 0.28730950816E+01 0.29676517816E+01
 0.30690495835E+01 0.31762633774E+01 0.32884985505E+01 0.34047738298E+01 0.35233381039E+01
 0.36411024276E+01 0.37533142443E+01 0.36498357234E+01 0.36863594423E+01 0.37044851311E+01
 0.37008584706E+01 0.36731670194E+01 0.36207599475E+01 0.35449972367E+01 0.34492565687E+01
 0.33386120496E+01 0.32192598575E+01 0.30977971348E+01 0.29804727334E+01 0.28725304033E+01
 0.27777541297E+01 0.26982937772E+01 0.26347950972E+01 0.25867905074E+01 0.25532433746E+01
 0.25330994142E+01 0.25257003291E+01 0.25309594907E+01 0.25492722614E+01 0.25812090744E+01
 0.26270958122E+01 0.26866125156E+01 0.27585346300E+01 0.28407004412E+01 0.29302203606E+01
 0.30238671911E+01 0.31185283520E+01 0.32115815913E+01 0.33010787109E+01 0.33856779104E+01
 0.34643408161E+01 0.35358890101E+01 0.35985747281E+01 0.35835522605E+01 0.35768337170E+01
 0.35564491082E+01 0.35218475699E+01 0.34725198061E+01 0.34084709087E+01 0.33306526692E+01
 0.32412220801E+01 0.31435456993E+01 0.30419375931E+01 0.29411831758E+01 0.28459513197E+01
 0.27602248970E+01 0.26868780127E+01 0.26274936553E+01 0.25824558220E+01 0.25512816860E+01
 0.25330994142E+01 0.25271392202E+01 0.25330994142E+01 0.25512816860E+01 0.25824558220E+01
 0.26274936553E+01 0.26868780127E+01 0.27602248970E+01 0.28459513197E+01 0.29411831758E+01
 0.30419375931E+01 0.31435456993E+01 0.32412220801E+01 0.33306526692E+01 0.34084709087E+01
 0.34725198061E+01 0.35218475699E+01 0.35564491082E+01 0.35768337170E+01 0.36498357234E+01
 0.35985747281E+01 0.35358890101E+01 0.34643408161E+01 0.33856779104E+01 0.33010787109E+01
 0.32115815913E+01 0.31185283520E+01 0.30238671911E+01 0.29302203606E+01 0.28407004412E+01
 0.27585346300E+01 0.26866125156E+01 0.26270958122E+01 0.25812090744E+01 0.25492722614E+01
 0.25309594907E+01 0.25257003291E+01 0.25330994142E+01 0.25532433746E+01 0.25867905074E+01
 0.26347950972E+01 0.26982937772E+01 0.27777541297E+01 0.28725304033E+01 0.29804727334E+01
 0.30977971348E+01 0.32192598575E+01 0.33386120496E+01 0.34492565687E+01 0.35449972367E+01
 0.36207599475E+01 0.36731670194E+01 0.37008584706E+01 0.37044851311E+01 0.36863594423E+01
 0.38536670421E+01 0.37533142443E+01 0.36411024276E+01 0.35233381039E+01 0.34047738298E+01
 0.32884985505E+01 0.31762633774E+01 0.30690495835E+01 0.29676517816E+01 0.28730950816E+01
 0.27867937888E+01 0.27104544380E+01 0.26458052110E+01 0.25942828107E+01 0.25568131867E+01
 0.25337784439E+01 0.25251838515E+01 0.25309594907E+01 0.25512816860E+01 0.25867905074E+01
 0.26386043342E+01 0.27080817224E+01 0.27963490863E+01 0.29036883987E+01 0.30289371761E+01
 0.31690653037E+01 0.33190497168E+01 0.34720876200E+01 0.36201094980E+01 0.37545067926E+01
 0.38669817082E+01 0.39504356504E+01 0.39998068047E+01 0.40127355327E+01 0.39899045511E+01
 0.39349167833E+01 0.42052216598E+01 0.40507285516E+01 0.38800452045E+01 0.37040923777E+01
 0.35318131628E+01 0.33694484541E+01 0.32205356213E+01 0.30864660558E+01 0.29673082375E+01
 0.28626046723E+01 0.27719448286E+01 0.26952404609E+01 0.26327386882E+01 0.25848806499E+01
 0.25521400768E+01 0.25349522461E+01 0.25337784439E+01 0.25492722614E+01 0.25824558220E+01
 0.26347950972E+01 0.27080817224E+01 0.28040751096E+01 0.29239279553E+01 0.30675005675E+01
 0.32327360971E+01 0.34152796293E+01 0.36084592218E+01 0.38036329057E+01 0.39908058185E+01
 0.41593923947E+01 0.42990453330E+01 0.44005426804E+01 0.44567425995E+01 0.44635447066E+01
 0.44206723662E+01 0.43320040382E+01 0.47057797390E+01 0.44976073749E+01 0.42630791250E+01
 0.40182453813E+01 0.37776074386E+01 0.35523864045E+01 0.33497409102E+01 0.31729558811E+01
 0.30223260393E+01 0.28963234062E+01 0.27926817039E+01 0.27091833685E+01 0.26441031080E+01
 0.25963795839E+01 0.25656336608E+01 0.25521400768E+01 0.25568131867E+01 0.25812090744E+01
 0.26274936553E+01 0.26982937772E+01 0.27963490863E+01 0.29239279553E+01 0.30820608142E+01
 0.32697518522E+01 0.34833991991E+01 0.37166266881E+01 0.39605950677E+01 0.42047973384E+01
 0.44430635156E+01 0.46685603459E+01 0.48631777029E+01 0.50050242739E+01 0.50772230110E+01
 0.50740610803E+01 0.50020981258E+01 0.48753428758E+01 0.54432369279E+01 0.51079259194E+01
 0.47883226138E+01 0.44721877632E+01 0.41540197457E+01 0.38510523566E+01 0.35767095538E+01
 0.33387622295E+01 0.31397355818E+01 0.29782232377E+01 0.28505303168E+01 0.27521635698E+01
 0.26789283226E+01 0.26276165453E+01 0.25963795839E+01 0.25848806499E+01 0.25942828107E+01
 0.26270958122E+01 0.26868780127E+01 0.27777541297E+01 0.29036883987E+01 0.30675005675E+01
 0.32697518522E+01 0.35077966424E+01 0.37753654644E+01 0.40629259445E+01 0.43705480638E+01
 0.47198341581E+01 0.51082264245E+01 0.55051271769E+01 0.58615055255E+01 0.61237852135E+01
 0.62494882929E+01 0.62203612840E+01 0.60484212328E+01 0.57721381614E+01 0.69571245143E+01
 0.62543953199E+01 0.56151738866E+01 0.50872262836E+01 0.46601058655E+01 0.42744016842E+01
 0.39153357862E+01 0.35985397023E+01 0.33323054675E+01 0.31179807276E+01 0.29519224813E+01
 0.28278325217E+01 0.27388214535E+01 0.26789283226E+01 0.26441031080E+01 0.26327386882E+01
 0.26458052110E+01 0.26866125156E+01 0.27602248970E+01 0.28725304033E+01 0.30289371761E+01
 0.32327360971E+01 0.34833991991E+01 0.37753654644E+01 0.40982151099E+01 0.44691022838E+01
 0.49456552914E+01 0.55489977718E+01 0.62545576529E+01 0.69971796894E+01 0.76832476218E+01
 0.82101866908E+01 0.84907501608E+01 0.84761559046E+01 0.81706936340E+01 0.76321876112E+01
 0.98759720592E+01 0.85737034335E+01 0.73166642190E+01 0.62421306319E+01 0.54169804000E+01
 0.48245429272E+01 0.43697918479E+01 0.39641996451E+01 0.36142400838E+01 0.33286141809E+01
 0.31070216843E+01 0.29431189843E+01 0.28278325217E+01 0.27521635698E+01 0.27091833685E+01
 0.26952404609E+01 0.27104544380E+01 0.27585346300E+01 0.28459513197E+01 0.29804727334E+01
 0.31690653037E+01 0.34152796293E+01 0.37166266881E+01 0.40629259445E+01 0.44691022838E+01
 0.50339116460E+01 0.58272691128E+01 0.68594051935E+01 0.80793489094E+01 0.93795888622E+01
 0.10609705909E+02 0.11601166121E+02 0.12201315501E+02 0.12309160706E+02 0.11902245349E+02
 0.11045177588E+02 0.14689307792E+02 0.12609994912E+02 0.10470309962E+02 0.85159056793E+01
 0.69183868047E+01 0.57478233362E+01 0.49652609973E+01 0.44348201416E+01 0.39943226571E+01
 0.36222858138E+01 0.33273691286E+01 0.31070216843E+01 0.29519224813E+01 0.28505303168E+01
 0.27926817039E+01 0.27719448286E+01 0.27867937888E+01 0.28407004412E+01 0.29411831758E+01
 0.30977971348E+01 0.33190497168E+01 0.36084592218E+01 0.39605950677E+01 0.43705480638E+01
 0.49456552914E+01 0.58272691128E+01 0.70900945567E+01 0.87326902492E+01 0.10674995286E+02
 0.12761729737E+02 0.14776180979E+02 0.16469196067E+02 0.17603050871E+02 0.18001857602E+02
 0.17594175982E+02 0.16433549565E+02 0.21672053454E+02 0.18714745971E+02 0.15496881787E+02
 0.12382206576E+02 0.96647031199E+01 0.75269227050E+01 0.60198626035E+01 0.50635780856E+01
 0.44676298364E+01 0.40044506648E+01 0.36222858138E+01 0.33286141809E+01 0.31179807276E+01
 0.29782232377E+01 0.28963234062E+01 0.28626046723E+01 0.28730950816E+01 0.29302203606E+01
 0.30419375931E+01 0.32192598575E+01 0.34720876200E+01 0.38036329057E+01 0.42047973384E+01
 0.47198341581E+01 0.55489977718E+01 0.68594051935E+01 0.87326902492E+01 0.11156199675E+02
 0.14019883986E+02 0.17117947510E+02 0.20161278680E+02 0.22808853015E+02 0.24720700412E+02
 0.25624148698E+02 0.25375372145E+02 0.23996031775E+02 0.30864401108E+02 0.27008847197E+02
 0.22601533800E+02 0.18127553183E+02 0.14011871287E+02 0.10564372774E+02 0.79489969358E+01
 0.61736929809E+01 0.50991448432E+01 0.44676298364E+01 0.39943226571E+01 0.36142400838E+01
 0.33323054675E+01 0.31397355818E+01 0.30223260393E+01 0.29673082375E+01 0.29676517816E+01
 0.30238671911E+01 0.31435456993E+01 0.33386120496E+01 0.36201094980E+01 0.39908058185E+01
 0.44430635156E+01 0.51082264245E+01 0.62545576529E+01 0.80793489094E+01 0.10674995286E+02
 0.14019883986E+02 0.17975318008E+02 0.22285324844E+02 0.26586220483E+02 0.30437999164E+02
 0.33384556208E+02 0.35036055655E+02 0.35152326280E+02 0.33700177056E+02 0.42080785586E+02
 0.37384940849E+02 0.31762705610E+02 0.25821138068E+02 0.20119868128E+02 0.15102389010E+02
 0.11056986810E+02 0.80998140508E+01 0.61736929809E+01 0.50635780856E+01 0.44348201416E+01
 0.39641996451E+01 0.35985397023E+01 0.33387622295E+01 0.31729558811E+01 0.30864660558E+01
 0.30690495835E+01 0.31185283520E+01 0.32412220801E+01 0.34492565687E+01 0.37545067926E+01
 0.41593923947E+01 0.46685603459E+01 0.55051271769E+01 0.69971796894E+01 0.93795888622E+01
 0.12761729737E+02 0.17117947510E+02 0.22285324844E+02 0.27961974697E+02 0.33712375971E+02
 0.38995730615E+02 0.43230317060E+02 0.45890889555E+02 0.46616207830E+02 0.45292165495E+02
 0.54912263172E+02 0.49515064513E+02 0.42739995820E+02 0.35315525425E+02 0.27938899034E+02
 0.21190127971E+02 0.15485244304E+02 0.11056986810E+02 0.79489969358E+01 0.60198626035E+01
 0.49652609973E+01 0.43697918479E+01 0.39153357862E+01 0.35767095538E+01 0.33497409102E+01
 0.32205356213E+01 0.31762633774E+01 0.32115815913E+01 0.33306526692E+01 0.35449972367E+01
 0.38669817082E+01 0.42990453330E+01 0.48631777029E+01 0.58615055255E+01 0.76832476218E+01
 0.10609705909E+02 0.14776180979E+02 0.20161278680E+02 0.26586220483E+02 0.33712375971E+02
 0.41041390882E+02 0.47937129913E+02 0.53689546661E+02 0.57623939554E+02 0.59233305964E+02
 0.58292398435E+02 0.68706723038E+02 0.62838791234E+02 0.55071460595E+02 0.46249755019E+02
 0.37211334585E+02 0.28676470987E+02 0.21190127971E+02 0.15102389010E+02 0.10564372774E+02
 0.75269227050E+01 0.57478233362E+01 0.48245429272E+01 0.42744016842E+01 0.38510523566E+01
 0.35523864045E+01 0.33694484541E+01 0.32884985505E+01 0.33010787109E+01 0.34084709087E+01
 0.36207599475E+01 0.39504356504E+01 0.44005426804E+01 0.50050242739E+01 0.61237852135E+01
 0.82101866908E+01 0.11601166121E+02 0.16469196067E+02 0.22808853015E+02 0.30437999164E+02
 0.38995730615E+02 0.47937129913E+02 0.56545579201E+02 0.63990280892E+02 0.69441493353E+02
 0.72225414557E+02 0.71972644293E+02 0.82548140798E+02 0.76539938879E+02 0.68055505201E+02
 0.58040433283E+02 0.47470777828E+02 0.37211334585E+02 0.27938899034E+02 0.20119868128E+02
 0.14011871287E+02 0.96647031199E+01 0.69183868047E+01 0.54169804000E+01 0.46601058655E+01
 0.41540197457E+01 0.37776074386E+01 0.35318131628E+01 0.34047738298E+01 0.33856779104E+01
 0.34725198061E+01 0.36731670194E+01 0.39998068047E+01 0.44567425995E+01 0.50772230110E+01
 0.62494882929E+01 0.84907501608E+01 0.12201315501E+02 0.17603050871E+02 0.24720700412E+02
 0.33384556208E+02 0.43230317060E+02 0.53689546661E+02 0.63990280892E+02 0.73201951251E+02
 0.80348135859E+02 0.84577509624E+02 0.85346350532E+02 0.95282998469E+02 0.89552532153E+02
 0.80745843494E+02 0.69875278800E+02 0.58040433283E+02 0.46249755019E+02 0.35315525425E+02
 0.25821138068E+02 0.18127553183E+02 0.12382206576E+02 0.85159056793E+01 0.62421306319E+01
 0.50872262836E+01 0.44721877632E+01 0.40182453813E+01 0.37040923777E+01 0.35233381039E+01
 0.34643408161E+01 0.35218475699E+01 0.37008584706E+01 0.40127355327E+01 0.44635447066E+01
 0.50740610803E+01 0.62203612840E+01 0.84761559046E+01 0.12309160706E+02 0.18001857602E+02
 0.25624148698E+02 0.35036055655E+02 0.45890889555E+02 0.57623939554E+02 0.69441493353E+02
 0.80348135859E+02 0.89247183666E+02 0.95116972775E+02 0.97221358222E+02 0.10563650312E+03
 0.10064348658E+03 0.92004704563E+02 0.80745843494E+02 0.68055505201E+02 0.55071460595E+02
 0.42739995820E+02 0.31762705610E+02 0.22601533800E+02 0.15496881787E+02 0.10470309962E+02
 0.73166642190E+01 0.56151738866E+01 0.47883226138E+01 0.42630791250E+01 0.38800452045E+01
 0.36411024276E+01 0.35358890101E+01 0.35564491082E+01 0.37044851311E+01 0.39899045511E+01
 0.44206723662E+01 0.50020981258E+01 0.60484212328E+01 0.81706936340E+01 0.11902245349E+02
 0.17594175982E+02 0.25375372145E+02 0.35152326280E+02 0.46616207830E+02 0.59233305964E+02
 0.72225414557E+02 0.84577509624E+02 0.95116972775E+02 0.10268175273E+03 0.10634676513E+03
 0.11242107724E+03 0.10859035430E+03 0.10064348658E+03 0.89552532153E+02 0.76539938879E+02
 0.62838791234E+02 0.49515064513E+02 0.37384940849E+02 0.27008847197E+02 0.18714745971E+02
 0.12609994912E+02 0.85737034335E+01 0.62543953199E+01 0.51079259194E+01 0.44976073749E+01
 0.40507285516E+01 0.37533142443E+01 0.35985747281E+01 0.35768337170E+01 0.36863594423E+01
 0.39349167833E+01 0.43320040382E+01 0.48753428758E+01 0.57721381614E+01 0.76321876112E+01
 0.11045177588E+02 0.16433549565E+02 0.23996031775E+02 0.33700177056E+02 0.45292165495E+02
 0.58292398435E+02 0.71972644293E+02 0.85346350532E+02 0.97221358222E+02 0.10634676513E+03
 0.11163886350E+03 0.11242107724E+03 0.11163886350E+03 0.10634676513E+03 0.97221358222E+02
 0.85346350532E+02 0.71972644293E+02 0.58292398435E+02 0.45292165495E+02 0.33700177056E+02
 0.23996031775E+02 0.16433549565E+02 0.11045177588E+02 0.76321876112E+01 0.57721381614E+01
 0.48753428758E+01 0.43320040382E+01 0.39349167833E+01 0.36863594423E+01 0.35768337170E+01
 0.35985747281E+01 0.37533142443E+01 0.40507285516E+01 0.44976073749E+01 0.51079259194E+01
 0.62543953199E+01 0.85737034335E+01 0.12609994912E+02 0.18714745971E+02 0.27008847197E+02
 0.37384940849E+02 0.49515064513E+02 0.62838791234E+02 0.76539938879E+02 0.89552532153E+02
 0.10064348658E+03 0.10859035430E+03 0.11163886350E+03 0.11242107685E+03 0.10859035358E+03
 0.10064348564E+03 0.89552531141E+02 0.76539937922E+02 0.62838790427E+02 0.49515063893E+02
 0.37384940406E+02 0.27008846886E+02 0.18714745745E+02 0.12609994736E+02 0.85737032949E+01
 0.62543952225E+01 0.51079258704E+01 0.44976073726E+01 0.40507285804E+01 0.37533142792E+01
 0.35985747455E+01 0.35768337068E+01 0.36863594130E+01 0.39349167586E+01 0.43320040469E+01
 0.48753429396E+01 0.57721382886E+01 0.76321877983E+01 0.11045177829E+02 0.16433549864E+02
 0.23996032152E+02 0.33700177537E+02 0.45292166102E+02 0.58292399164E+02 0.71972645094E+02
 0.85346351310E+02 0.97221358854E+02 0.10634676548E+03 0.10634676513E+03 0.10859035358E+03
 0.10634676449E+03 0.99909573910E+02 0.90085263122E+02 0.78000864473E+02 0.64868598983E+02
 0.51788536830E+02 0.39637216239E+02 0.29039902542E+02 0.20386904831E+02 0.13849697557E+02
 0.93780478232E+01 0.66935005202E+01 0.53125963372E+01 0.46236177219E+01 0.41395371829E+01
 0.38013040760E+01 0.36057957251E+01 0.35423099633E+01 0.36057956806E+01 0.38013040162E+01
 0.41395371525E+01 0.46236177606E+01 0.53125964648E+01 0.66935007346E+01 0.93780481141E+01
 0.13849697927E+02 0.20386905312E+02 0.29039903194E+02 0.39637217129E+02 0.51788537995E+02
 0.64868600392E+02 0.78000866005E+02 0.90085264581E+02 0.99909575061E+02 0.97221358222E+02
 0.10064348564E+03 0.99909573910E+02 0.95116972101E+02 0.86877932754E+02 0.76170921555E+02
 0.64126721911E+02 0.51826547296E+02 0.40169198272E+02 0.29820228424E+02 0.21215412372E+02
 0.14576336894E+02 0.99121724598E+01 0.70130382677E+01 0.54631273221E+01 0.47002500637E+01
 0.41933394427E+01 0.38252202569E+01 0.35964946634E+01 0.34962113313E+01 0.35164023264E+01
 0.36588689881E+01 0.39338358623E+01 0.43504584897E+01 0.49091443977E+01 0.58695874307E+01
 0.78178106030E+01 0.11279466275E+02 0.16607590413E+02 0.23939245509E+02 0.33191654615E+02
 0.44068164349E+02 0.56051493390E+02 0.68389486371E+02 0.80107138956E+02 0.90085264280E+02
 0.85346350532E+02 0.89552531141E+02 0.90085263122E+02 0.86877932754E+02 0.80348135350E+02
 0.71295573597E+02 0.60721728250E+02 0.49638318806E+02 0.38923947555E+02 0.29253715457E+02
 0.21087185886E+02 0.14679021849E+02 0.10083523702E+02 0.71500194276E+01 0.55301163661E+01
 0.47228435078E+01 0.42066192569E+01 0.38211305685E+01 0.35688913415E+01 0.34392372305E+01
 0.34218690837E+01 0.35151813833E+01 0.37274544514E+01 0.40709517157E+01 0.45489545698E+01
 0.52167728803E+01 0.65173338327E+01 0.89907358582E+01 0.13050427178E+02 0.18918769829E+02
 0.26606321836E+02 0.35913720709E+02 0.46432064845E+02 0.57535906306E+02 0.68389486140E+02
 0.78000865503E+02 0.71972644293E+02 0.76539937922E+02 0.78000864473E+02 0.76170921555E+02
 0.71295573597E+02 0.63990280658E+02 0.55099014689E+02 0.45524496141E+02 0.36085915864E+02
 0.27435851675E+02 0.20033587897E+02 0.14148066223E+02 0.98628047584E+01 0.70738771615E+01
 0.54945083047E+01 0.46891053819E+01 0.41771825437E+01 0.37870700029E+01 0.35219985127E+01
 0.33718554590E+01 0.33246919528E+01 0.33757337831E+01 0.35303528184E+01 0.38011604583E+01
 0.41990408365E+01 0.47216713846E+01 0.55446098286E+01 0.71594677575E+01 0.10015738662E+02
 0.14410836306E+02 0.20449186754E+02 0.28032410920E+02 0.36860521058E+02 0.46432064677E+02
 0.56051493016E+02 0.64868599797E+02 0.58292398435E+02 0.62838790427E+02 0.64868598983E+02
 0.64126721911E+02 0.60721728250E+02 0.55099014689E+02 0.47937129954E+02 0.40006103075E+02
 0.32035819418E+02 0.24628201214E+02 0.18219339813E+02 0.13074120293E+02 0.92895632655E+01
 0.67949672124E+01 0.53559191402E+01 0.46003910046E+01 0.41063906326E+01 0.37235040475E+01
 0.34561160074E+01 0.32947232547E+01 0.32264355094E+01 0.32438780670E+01 0.33491657692E+01
 0.35531814195E+01 0.38700595568E+01 0.43067285867E+01 0.48723979237E+01 0.58459683021E+01
 0.76756661163E+01 0.10712607218E+02 0.15147457694E+02 0.20983803586E+02 0.28032410802E+02
 0.35913720440E+02 0.44068163913E+02 0.51788537398E+02 0.45292165495E+02 0.49515063893E+02
 0.51788536830E+02 0.51826547296E+02 0.49638318806E+02 0.45524496141E+02 0.40006103075E+02
 0.33712376197E+02 0.27265998682E+02 0.21197678689E+02 0.15901738167E+02 0.11623475952E+02
 0.84597867885E+01 0.63606139458E+01 0.51334101864E+01 0.44639477747E+01 0.39988395894E+01
 0.36333826619E+01 0.33731129089E+01 0.32091014701E+01 0.31282101862E+01 0.31212529804E+01
 0.31873019436E+01 0.33343458490E+01 0.35763601907E+01 0.39264847559E+01 0.43865858703E+01
 0.49916154749E+01 0.60595065886E+01 0.79627893385E+01 0.10959147394E+02 0.15147457617E+02
 0.20449186570E+02 0.26606321526E+02 0.33191654179E+02 0.39637216588E+02 0.33700177056E+02
 0.37384940406E+02 0.39637216239E+02 0.40169198272E+02 0.38923947555E+02 0.36085915864E+02
 0.32035819418E+02 0.27265998682E+02 0.22285325117E+02 0.17541423538E+02 0.13374310306E+02
 0.99984960295E+01 0.75005527019E+01 0.58409278747E+01 0.48591016623E+01 0.42910297513E+01
 0.38616620614E+01 0.35218136069E+01 0.32764249941E+01 0.31171219510E+01 0.30311702835E+01
 0.30084638775E+01 0.30456533378E+01 0.31475266808E+01 0.33257873457E+01 0.35950329147E+01
 0.39657495310E+01 0.44351158900E+01 0.50587068765E+01 0.61367227252E+01 0.79627892965E+01
 0.10712607106E+02 0.14410836103E+02 0.18918769524E+02 0.23939245111E+02 0.29039902732E+02
 0.23996031775E+02 0.27008846886E+02 0.29039902542E+02 0.29820228424E+02 0.29253715457E+02
 0.27435851675E+02 0.24628201214E+02 0.21197678689E+02 0.17541423538E+02 0.14019884178E+02