   1   1   1   0
  0.1350000E+02  0.2598076E-09  0.2598076E-09  0.2598076E-09  0.5000000E-15
  1.000000000000000E-004
  CAR 
 Fe BCC                                  
     41.59830504     -5.37348776  301      3.99531173      1.00000000
     -5.373  0.0000E+00  0.0000E+00  0.0000E+00  0.0000E+00
     -5.217  0.0000E+00  0.0000E+00  0.0000E+00  0.0000E+00
     -5.060  0.0000E+00  0.0000E+00  0.0000E+00  0.0000E+00
     -4.904  0.0000E+00  0.0000E+00  0.0000E+00  0.0000E+00
     -4.747  0.0000E+00  0.0000E+00  0.0000E+00  0.0000E+00
     -4.591  0.0000E+00  0.0000E+00  0.0000E+00  0.0000E+00
     -4.434  0.0000E+00  0.0000E+00  0.0000E+00  0.0000E+00
     -4.277  0.0000E+00  0.0000E+00  0.0000E+00  0.0000E+00
     -4.121  0.0000E+00  0.0000E+00  0.0000E+00  0.0000E+00
     -3.964  0.0000E+00  0.0000E+00  0.0000E+00  0.0000E+00
     -3.808  0.0000E+00  0.0000E+00  0.0000E+00  0.0000E+00
     -3.651  0.0000E+00  0.0000E+00  0.0000E+00  0.0000E+00
     -3.495  0.0000E+00  0.0000E+00  0.0000E+00  0.0000E+00
     -3.338  0.0000E+00  0.0000E+00  0.0000E+00  0.0000E+00
     -3.181  0.1379E-01  0.0000E+00  0.1353E-02  0.0000E+00
     -3.025  0.2108E-01  0.0000E+00  0.4099E-02  0.0000E+00
     -2.868  0.2711E-01  0.1179E-01  0.7888E-02  0.8943E-03
     -2.712  0.3189E-01  0.1912E-01  0.1252E-01  0.3330E-02
     -2.555  0.4035E-01  0.2521E-01  0.1815E-01  0.6817E-02
     -2.399  0.4751E-01  0.3004E-01  0.2506E-01  0.1116E-01
     -2.242  0.5262E-01  0.3694E-01  0.3292E-01  0.1632E-01
     -2.085  0.5354E-01  0.4407E-01  0.4116E-01  0.2269E-01
     -1.929  0.5927E-01  0.4914E-01  0.4998E-01  0.3001E-01
     -1.772  0.6548E-01  0.4857E-01  0.5974E-01  0.3784E-01
     -1.616  0.7218E-01  0.5296E-01  0.7051E-01  0.4578E-01
     -1.459  0.7936E-01  0.5763E-01  0.8237E-01  0.5444E-01
     -1.303  0.8703E-01  0.6258E-01  0.9539E-01  0.6385E-01
     -1.146  0.9718E-01  0.6782E-01  0.1097E+00  0.7405E-01
     -0.989  0.1117E+00  0.7333E-01  0.1260E+00  0.8510E-01
     -0.833  0.1269E+00  0.7912E-01  0.1447E+00  0.9703E-01
     -0.676  0.1431E+00  0.8468E-01  0.1657E+00  0.1097E+00
     -0.520  0.1677E+00  0.9169E-01  0.1899E+00  0.1236E+00
     -0.363  0.2009E+00  0.9841E-01  0.2187E+00  0.1384E+00
     -0.207  0.2413E+00  0.1040E+00  0.2532E+00  0.1543E+00
     -0.050  0.2888E+00  0.1111E+00  0.2946E+00  0.1711E+00
      0.107  0.5498E+00  0.1203E+00  0.3706E+00  0.1892E+00
      0.263  0.7291E+00  0.1311E+00  0.4680E+00  0.2088E+00
      0.420  0.9029E+00  0.1432E+00  0.5971E+00  0.2303E+00
      0.576  0.1227E+01  0.1566E+00  0.7700E+00  0.2538E+00
      0.733  0.8362E+00  0.1712E+00  0.9369E+00  0.2794E+00
      0.889  0.5215E+00  0.1935E+00  0.1037E+01  0.3077E+00
      1.046  0.3740E+00  0.2400E+00  0.1098E+01  0.3412E+00
      1.203  0.1978E+01  0.3053E+00  0.1243E+01  0.3837E+00
      1.359  0.1955E+01  0.4077E+00  0.1579E+01  0.4413E+00
      1.516  0.1095E+01  0.4069E+00  0.1815E+01  0.5048E+00
      1.672  0.1073E+01  0.4154E+00  0.1977E+01  0.5694E+00
      1.829  0.1788E+01  0.4183E+00  0.2189E+01  0.6344E+00
      1.985  0.2317E+01  0.5921E+00  0.2544E+01  0.7103E+00
      2.142  0.6455E+00  0.8334E+00  0.2735E+01  0.8249E+00
      2.299  0.5163E+00  0.5980E+00  0.2824E+01  0.9391E+00
      2.455  0.5119E+00  0.3150E+00  0.2904E+01  0.1022E+01
      2.612  0.7812E+00  0.1829E+00  0.3001E+01  0.1066E+01
      2.768  0.1168E+01  0.2730E+00  0.3143E+01  0.1099E+01
      2.925  0.2419E+01  0.1182E+01  0.3422E+01  0.1191E+01
      3.081  0.2744E+01  0.1557E+01  0.3855E+01  0.1416E+01
      3.238  0.3340E+01  0.1679E+01  0.4293E+01  0.1707E+01
      3.395  0.1461E+01  0.1430E+01  0.4608E+01  0.1923E+01
      3.551  0.1086E+01  0.1316E+01  0.4797E+01  0.2129E+01
      3.708  0.1052E+01  0.1678E+01  0.4961E+01  0.2371E+01
      3.864  0.7513E+00  0.1424E+01  0.5165E+01  0.2613E+01
      4.021  0.1774E+00  0.8750E+00  0.5228E+01  0.2801E+01
      4.177  0.1758E+00  0.2982E+00  0.5256E+01  0.2877E+01
      4.334  0.1810E+00  0.1794E+00  0.5284E+01  0.2912E+01
      4.491  0.2770E+00  0.2061E+00  0.5314E+01  0.2942E+01
      4.647  0.1918E+00  0.3427E+00  0.5346E+01  0.2982E+01
      4.804  0.1802E+00  0.5113E+00  0.5375E+01  0.3050E+01
      4.960  0.1729E+00  0.8469E+00  0.5402E+01  0.3149E+01
      5.117  0.1729E+00  0.1235E+01  0.5429E+01  0.3312E+01
      5.273  0.1728E+00  0.1927E+01  0.5457E+01  0.3564E+01
      5.430  0.1726E+00  0.2047E+01  0.5484E+01  0.3890E+01
      5.587  0.1724E+00  0.1865E+01  0.5511E+01  0.4169E+01
      5.743  0.1718E+00  0.4420E+01  0.5538E+01  0.4550E+01
      5.900  0.1707E+00  0.1369E+01  0.5564E+01  0.4845E+01
      6.056  0.1682E+00  0.1298E+01  0.5591E+01  0.5050E+01
      6.213  0.1653E+00  0.5105E+00  0.5617E+01  0.5229E+01
      6.369  0.1673E+00  0.3061E+00  0.5643E+01  0.5279E+01
      6.526  0.1616E+00  0.2977E+00  0.5669E+01  0.5326E+01
      6.683  0.1546E+00  0.2648E+00  0.5694E+01  0.5370E+01
      6.839  0.1472E+00  0.2400E+00  0.5720E+01  0.5409E+01
      6.996  0.1411E+00  0.2359E+00  0.5742E+01  0.5446E+01
      7.152  0.1350E+00  0.2323E+00  0.5764E+01  0.5483E+01
      7.309  0.1291E+00  0.2287E+00  0.5785E+01  0.5519E+01
      7.465  0.1233E+00  0.2232E+00  0.5805E+01  0.5555E+01
      7.622  0.1175E+00  0.2142E+00  0.5823E+01  0.5589E+01
      7.779  0.1106E+00  0.2098E+00  0.5841E+01  0.5622E+01
      7.935  0.1034E+00  0.1954E+00  0.5858E+01  0.5654E+01
      8.092  0.9624E-01  0.1845E+00  0.5874E+01  0.5684E+01
      8.248  0.8923E-01  0.1850E+00  0.5888E+01  0.5713E+01
      8.405  0.9113E-01  0.1664E+00  0.5902E+01  0.5742E+01
      8.561  0.8422E-01  0.1574E+00  0.5916E+01  0.5767E+01
      8.718  0.7542E-01  0.1490E+00  0.5928E+01  0.5791E+01
      8.875  0.6473E-01  0.1409E+00  0.5939E+01  0.5814E+01
      9.031  0.4869E-01  0.1334E+00  0.5947E+01  0.5835E+01
      9.188  0.4474E-01  0.1241E+00  0.5955E+01  0.5855E+01
      9.344  0.4103E-01  0.1143E+00  0.5961E+01  0.5874E+01
      9.501  0.3354E-01  0.1126E+00  0.5969E+01  0.5892E+01
      9.657  0.2607E-01  0.1017E+00  0.5973E+01  0.5909E+01
      9.814  0.2099E-01  0.8922E-01  0.5977E+01  0.5924E+01
      9.971  0.1827E-01  0.7500E-01  0.5980E+01  0.5936E+01
     10.127  0.4109E-01  0.5762E-01  0.5984E+01  0.5946E+01
     10.284  0.6923E-01  0.5248E-01  0.5993E+01  0.5955E+01
     10.440  0.1029E+00  0.4765E-01  0.6006E+01  0.5962E+01
     10.597  0.1422E+00  0.4109E-01  0.6025E+01  0.5971E+01
     10.753  0.1968E+00  0.3089E-01  0.6052E+01  0.5976E+01
     10.910  0.2380E+00  0.2360E-01  0.6089E+01  0.5981E+01
     11.067  0.2567E+00  0.1922E-01  0.6128E+01  0.5984E+01
     11.223  0.2693E+00  0.1865E-01  0.6169E+01  0.5987E+01
     11.380  0.2758E+00  0.2640E-01  0.6212E+01  0.5990E+01
     11.536  0.2389E+00  0.6903E-01  0.6252E+01  0.5998E+01
     11.693  0.2144E+00  0.1194E+00  0.6287E+01  0.6013E+01
     11.850  0.1901E+00  0.1840E+00  0.6318E+01  0.6037E+01
     12.006  0.1871E+00  0.2482E+00  0.6347E+01  0.6072E+01
     12.163  0.1846E+00  0.2779E+00  0.6376E+01  0.6115E+01
     12.319  0.1833E+00  0.2935E+00  0.6405E+01  0.6159E+01
     12.476  0.1863E+00  0.3065E+00  0.6434E+01  0.6206E+01
     12.632  0.2019E+00  0.2708E+00  0.6464E+01  0.6252E+01
     12.789  0.1967E+00  0.2398E+00  0.6495E+01  0.6292E+01
     12.946  0.1935E+00  0.2143E+00  0.6526E+01  0.6326E+01
     13.102  0.1924E+00  0.2133E+00  0.6556E+01  0.6359E+01
     13.259  0.1832E+00  0.2153E+00  0.6587E+01  0.6393E+01
     13.415  0.1877E+00  0.2178E+00  0.6616E+01  0.6427E+01
     13.572  0.1935E+00  0.2258E+00  0.6646E+01  0.6463E+01
     13.728  0.1999E+00  0.1938E+00  0.6676E+01  0.6498E+01
     13.885  0.2185E+00  0.1950E+00  0.6710E+01  0.6529E+01
     14.042  0.2205E+00  0.1969E+00  0.6744E+01  0.6559E+01
     14.198  0.2229E+00  0.1992E+00  0.6779E+01  0.6590E+01
     14.355  0.2343E+00  0.2026E+00  0.6816E+01  0.6622E+01
     14.511  0.2374E+00  0.2084E+00  0.6853E+01  0.6654E+01
     14.668  0.2432E+00  0.2150E+00  0.6890E+01  0.6687E+01
     14.824  0.2476E+00  0.2333E+00  0.6929E+01  0.6723E+01
     14.981  0.2250E+00  0.2439E+00  0.6967E+01  0.6761E+01
     15.138  0.2079E+00  0.2463E+00  0.7000E+01  0.6800E+01
     15.294  0.2049E+00  0.2495E+00  0.7032E+01  0.6838E+01
     15.451  0.2021E+00  0.2605E+00  0.7064E+01  0.6878E+01
     15.607  0.1994E+00  0.2377E+00  0.7095E+01  0.6919E+01
     15.764  0.1968E+00  0.2366E+00  0.7126E+01  0.6956E+01
     15.920  0.1953E+00  0.2168E+00  0.7157E+01  0.6991E+01
     16.077  0.1932E+00  0.2137E+00  0.7187E+01  0.7025E+01
     16.234  0.1952E+00  0.2107E+00  0.7218E+01  0.7058E+01
     16.390  0.1863E+00  0.2078E+00  0.7248E+01  0.7091E+01
     16.547  0.1844E+00  0.2050E+00  0.7277E+01  0.7123E+01
     16.703  0.1832E+00  0.2025E+00  0.7306E+01  0.7155E+01
     16.860  0.1809E+00  0.2012E+00  0.7334E+01  0.7187E+01
     17.016  0.1785E+00  0.2123E+00  0.7362E+01  0.7218E+01
     17.173  0.1765E+00  0.1950E+00  0.7390E+01  0.7250E+01
     17.330  0.1746E+00  0.1921E+00  0.7418E+01  0.7280E+01
     17.486  0.1728E+00  0.1907E+00  0.7445E+01  0.7310E+01
     17.643  0.1709E+00  0.1883E+00  0.7472E+01  0.7340E+01
     17.799  0.1696E+00  0.1860E+00  0.7498E+01  0.7369E+01
     17.956  0.1684E+00  0.1842E+00  0.7525E+01  0.7398E+01
     18.112  0.1666E+00  0.1824E+00  0.7551E+01  0.7427E+01
     18.269  0.1731E+00  0.1806E+00  0.7579E+01  0.7455E+01
     18.426  0.1758E+00  0.1789E+00  0.7606E+01  0.7483E+01
     18.582  0.1813E+00  0.1778E+00  0.7634E+01  0.7511E+01
     18.739  0.1899E+00  0.1765E+00  0.7663E+01  0.7539E+01
     18.895  0.2038E+00  0.1746E+00  0.7694E+01  0.7566E+01
     19.052  0.2245E+00  0.1729E+00  0.7729E+01  0.7594E+01
     19.208  0.2225E+00  0.1735E+00  0.7765E+01  0.7621E+01
     19.365  0.2316E+00  0.1874E+00  0.7800E+01  0.7650E+01
     19.522  0.2410E+00  0.1977E+00  0.7837E+01  0.7680E+01
     19.678  0.2503E+00  0.2137E+00  0.7876E+01  0.7712E+01
     19.835  0.2613E+00  0.2316E+00  0.7916E+01  0.7747E+01
     19.991  0.2715E+00  0.2320E+00  0.7957E+01  0.7785E+01
     20.148  0.2836E+00  0.2470E+00  0.8001E+01  0.7823E+01
     20.304  0.2956E+00  0.2571E+00  0.8046E+01  0.7862E+01
     20.461  0.3076E+00  0.2693E+00  0.8093E+01  0.7904E+01
     20.618  0.3259E+00  0.2813E+00  0.8143E+01  0.7947E+01
     20.774  0.3505E+00  0.2941E+00  0.8196E+01  0.7992E+01
     20.931  0.3396E+00  0.3066E+00  0.8250E+01  0.8039E+01
     21.087  0.3339E+00  0.3188E+00  0.8303E+01  0.8088E+01
     21.244  0.3309E+00  0.3219E+00  0.8355E+01  0.8138E+01
     21.400  0.3293E+00  0.3456E+00  0.8406E+01  0.8190E+01
     21.557  0.3275E+00  0.3528E+00  0.8458E+01  0.8245E+01
     21.714  0.3173E+00  0.3441E+00  0.8508E+01  0.8300E+01
     21.870  0.3123E+00  0.3400E+00  0.8557E+01  0.8353E+01
     22.027  0.3114E+00  0.3377E+00  0.8606E+01  0.8406E+01
     22.183  0.3030E+00  0.3345E+00  0.8655E+01  0.8459E+01
     22.340  0.2974E+00  0.3234E+00  0.8702E+01  0.8511E+01
     22.496  0.2895E+00  0.3191E+00  0.8749E+01  0.8561E+01
     22.653  0.2661E+00  0.3243E+00  0.8792E+01  0.8612E+01
     22.810  0.2405E+00  0.3089E+00  0.8832E+01  0.8661E+01
     22.966  0.2119E+00  0.2970E+00  0.8867E+01  0.8709E+01
     23.123  0.1810E+00  0.2850E+00  0.8898E+01  0.8754E+01
     23.279  0.1615E+00  0.2662E+00  0.8925E+01  0.8798E+01
     23.436  0.1599E+00  0.2320E+00  0.8950E+01  0.8837E+01
     23.592  0.1624E+00  0.1993E+00  0.8975E+01  0.8871E+01
     23.749  0.1658E+00  0.1764E+00  0.9001E+01  0.8900E+01
     23.906  0.1700E+00  0.1640E+00  0.9027E+01  0.8927E+01
     24.062  0.1643E+00  0.1670E+00  0.9053E+01  0.8953E+01
     24.219  0.1574E+00  0.1696E+00  0.9079E+01  0.8979E+01
     24.375  0.1571E+00  0.1717E+00  0.9103E+01  0.9006E+01
     24.532  0.1570E+00  0.1734E+00  0.9128E+01  0.9033E+01
     24.688  0.1685E+00  0.1601E+00  0.9154E+01  0.9058E+01
     24.845  0.1638E+00  0.1595E+00  0.9180E+01  0.9084E+01
     25.002  0.1573E+00  0.1589E+00  0.9205E+01  0.9108E+01
     25.158  0.1584E+00  0.1585E+00  0.9230E+01  0.9133E+01
     25.315  0.1616E+00  0.1727E+00  0.9255E+01  0.9159E+01
     25.471  0.1669E+00  0.1650E+00  0.9280E+01  0.9185E+01
     25.628  0.1709E+00  0.1572E+00  0.9307E+01  0.9211E+01
     25.784  0.1787E+00  0.1570E+00  0.9335E+01  0.9236E+01
     25.941  0.1885E+00  0.1620E+00  0.9363E+01  0.9261E+01
     26.098  0.3162E+00  0.1681E+00  0.9398E+01  0.9287E+01
     26.254  0.3532E+00  0.1749E+00  0.9452E+01  0.9314E+01
     26.411  0.3263E+00  0.1826E+00  0.9506E+01  0.9342E+01
     26.567  0.2609E+00  0.1910E+00  0.9552E+01  0.9371E+01
     26.724  0.2214E+00  0.2499E+00  0.9590E+01  0.9404E+01
     26.880  0.2088E+00  0.4138E+00  0.9623E+01  0.9455E+01
     27.037  0.1963E+00  0.3258E+00  0.9655E+01  0.9516E+01
     27.194  0.1837E+00  0.2552E+00  0.9685E+01  0.9559E+01
     27.350  0.1750E+00  0.2420E+00  0.9713E+01  0.9598E+01
     27.507  0.1753E+00  0.2262E+00  0.9740E+01  0.9634E+01
     27.663  0.1754E+00  0.2067E+00  0.9768E+01  0.9668E+01
     27.820  0.1753E+00  0.1905E+00  0.9795E+01  0.9699E+01
     27.976  0.1750E+00  0.1868E+00  0.9822E+01  0.9729E+01
     28.133  0.3176E+00  0.1897E+00  0.9868E+01  0.9758E+01
     28.290  0.2612E+00  0.2172E+00  0.9905E+01  0.9790E+01
     28.446  0.2813E+00  0.2360E+00  0.9948E+01  0.9826E+01
     28.603  0.2778E+00  0.2205E+00  0.9992E+01  0.9862E+01
     28.759  0.2775E+00  0.1960E+00  0.1004E+02  0.9895E+01
     28.916  0.2988E+00  0.2390E+00  0.1008E+02  0.9926E+01
     29.072  0.3194E+00  0.2524E+00  0.1013E+02  0.9965E+01
     29.229  0.3393E+00  0.2711E+00  0.1018E+02  0.1001E+02
     29.386  0.3533E+00  0.2818E+00  0.1024E+02  0.1005E+02
     29.542  0.3591E+00  0.3047E+00  0.1029E+02  0.1010E+02
     29.699  0.3585E+00  0.3265E+00  0.1035E+02  0.1015E+02
     29.855  0.3959E+00  0.3470E+00  0.1041E+02  0.1020E+02
     30.012  0.3660E+00  0.3574E+00  0.1047E+02  0.1025E+02
     30.169  0.3526E+00  0.3712E+00  0.1052E+02  0.1031E+02
     30.325  0.3245E+00  0.3879E+00  0.1058E+02  0.1037E+02
     30.482  0.2791E+00  0.3749E+00  0.1063E+02  0.1043E+02
     30.638  0.2586E+00  0.3692E+00  0.1067E+02  0.1049E+02
     30.795  0.2445E+00  0.3569E+00  0.1071E+02  0.1054E+02
     30.951  0.2365E+00  0.3160E+00  0.1074E+02  0.1060E+02
     31.108  0.2332E+00  0.2811E+00  0.1078E+02  0.1064E+02
     31.265  0.2253E+00  0.2656E+00  0.1082E+02  0.1069E+02
     31.421  0.2326E+00  0.2507E+00  0.1085E+02  0.1073E+02
     31.578  0.2418E+00  0.2427E+00  0.1089E+02  0.1077E+02
     31.734  0.2544E+00  0.2397E+00  0.1093E+02  0.1080E+02
     31.891  0.2669E+00  0.2280E+00  0.1097E+02  0.1084E+02
     32.047  0.2793E+00  0.2288E+00  0.1101E+02  0.1088E+02
     32.204  0.2921E+00  0.2416E+00  0.1106E+02  0.1091E+02
     32.361  0.3136E+00  0.2560E+00  0.1110E+02  0.1095E+02
     32.517  0.3383E+00  0.2711E+00  0.1116E+02  0.1099E+02
     32.674  0.3721E+00  0.2867E+00  0.1121E+02  0.1104E+02
     32.830  0.3826E+00  0.3019E+00  0.1127E+02  0.1108E+02
     32.987  0.3364E+00  0.3172E+00  0.1133E+02  0.1113E+02
     33.143  0.2872E+00  0.3564E+00  0.1138E+02  0.1118E+02
     33.300  0.2561E+00  0.4287E+00  0.1142E+02  0.1125E+02
     33.457  0.2475E+00  0.3492E+00  0.1146E+02  0.1130E+02
     33.613  0.2392E+00  0.3104E+00  0.1150E+02  0.1136E+02
     33.770  0.2313E+00  0.2688E+00  0.1153E+02  0.1140E+02
     33.926  0.2172E+00  0.2543E+00  0.1157E+02  0.1144E+02
     34.083  0.2104E+00  0.2464E+00  0.1160E+02  0.1148E+02
     34.239  0.2020E+00  0.2324E+00  0.1163E+02  0.1152E+02
     34.396  0.1941E+00  0.2240E+00  0.1166E+02  0.1155E+02
     34.553  0.1867E+00  0.2157E+00  0.1169E+02  0.1159E+02
     34.709  0.1798E+00  0.2072E+00  0.1172E+02  0.1162E+02
     34.866  0.1883E+00  0.1988E+00  0.1175E+02  0.1165E+02
     35.022  0.1813E+00  0.1931E+00  0.1178E+02  0.1169E+02
     35.179  0.1791E+00  0.1856E+00  0.1181E+02  0.1171E+02
     35.335  0.1648E+00  0.1838E+00  0.1184E+02  0.1174E+02
     35.492  0.1253E+00  0.1855E+00  0.1186E+02  0.1177E+02
     35.649  0.9577E-01  0.1830E+00  0.1188E+02  0.1180E+02
     35.805  0.7783E-01  0.1854E+00  0.1189E+02  0.1183E+02
     35.962  0.6974E-01  0.1251E+00  0.1190E+02  0.1186E+02
     36.118  0.6333E-01  0.1018E+00  0.1191E+02  0.1187E+02
     36.275  0.5860E-01  0.8277E-01  0.1192E+02  0.1189E+02
     36.431  0.5461E-01  0.7122E-01  0.1193E+02  0.1190E+02
     36.588  0.5082E-01  0.6483E-01  0.1194E+02  0.1191E+02
     36.745  0.4721E-01  0.6043E-01  0.1195E+02  0.1192E+02
     36.901  0.4380E-01  0.5640E-01  0.1196E+02  0.1193E+02
     37.058  0.4058E-01  0.5254E-01  0.1196E+02  0.1194E+02
     37.214  0.3755E-01  0.4886E-01  0.1197E+02  0.1195E+02
     37.371  0.3471E-01  0.4535E-01  0.1197E+02  0.1195E+02
     37.527  0.3206E-01  0.4202E-01  0.1198E+02  0.1196E+02
     37.684  0.2961E-01  0.3886E-01  0.1198E+02  0.1197E+02
     37.841  0.2735E-01  0.3588E-01  0.1199E+02  0.1197E+02
     37.997  0.3471E-01  0.3307E-01  0.1199E+02  0.1198E+02
     38.154  0.4510E-02  0.3043E-01  0.1200E+02  0.1198E+02
     38.310  0.4058E-02  0.2310E-01  0.1200E+02  0.1199E+02
     38.467  0.3625E-02  0.2140E-01  0.1200E+02  0.1199E+02
     38.623  0.3209E-02  0.5035E-02  0.1200E+02  0.1200E+02
     38.780  0.2812E-02  0.4211E-02  0.1200E+02  0.1200E+02
     38.937  0.2432E-02  0.3746E-02  0.1200E+02  0.1200E+02
     39.093  0.0000E+00  0.3301E-02  0.1200E+02  0.1200E+02
     39.250  0.0000E+00  0.2877E-02  0.1200E+02  0.1200E+02
     39.406  0.0000E+00  0.2472E-02  0.1200E+02  0.1200E+02
     39.563  0.0000E+00  0.0000E+00  0.1200E+02  0.1200E+02
     39.719  0.0000E+00  0.0000E+00  0.1200E+02  0.1200E+02
     39.876  0.0000E+00  0.0000E+00  0.1200E+02  0.1200E+02
     40.033  0.0000E+00  0.0000E+00  0.1200E+02  0.1200E+02
     40.189  0.0000E+00  0.0000E+00  0.1200E+02  0.1200E+02
     40.346  0.0000E+00  0.0000E+00  0.1200E+02  0.1200E+02
     40.502  0.0000E+00  0.0000E+00  0.1200E+02  0.1200E+02
     40.659  0.0000E+00  0.0000E+00  0.1200E+02  0.1200E+02
     40.815  0.0000E+00  0.0000E+00  0.1200E+02  0.1200E+02
     40.972  0.0000E+00  0.0000E+00  0.1200E+02  0.1200E+02
     41.129  0.0000E+00  0.0000E+00  0.1200E+02  0.1200E+02
     41.285  0.0000E+00  0.0000E+00  0.1200E+02  0.1200E+02
     41.442  0.0000E+00  0.0000E+00  0.1200E+02  0.1200E+02
     41.598  0.0000E+00  0.0000E+00  0.1200E+02  0.1200E+02
     41.59830504     -5.37348776  301      3.99531173      1.00000000
     -5.373  0.0000E+00  0.0000E+00  0.0000E+00  0.0000E+00  0.0000E+00  0.0000E+00  0.0000E+00  0.0000E+00  0.0000E+00  0.0000E+00  0.0000E+00  0.0000E+00  0.0000E+00  0.0000E+00  0.0000E+00  0.0000E+00  0.0000E+00  0.0000E+00
     -5.217  0.0000E+00  0.0000E+00  0.0000E+00  0.0000E+00  0.0000E+00  0.0000E+00  0.0000E+00  0.0000E+00  0.0000E+00  0.0000E+00  0.0000E+00  0.0000E+00  0.0000E+00  0.0000E+00  0.0000E+00  0.0000E+00  0.0000E+00  0.0000E+00
     -5.060  0.0000E+00  0.0000E+00  0.0000E+00  0.0000E+00  0.0000E+00  0.0000E+00  0.0000E+00  0.0000E+00  0.0000E+00  0.0000E+00  0.0000E+00  0.0000E+00  0.0000E+00  0.0000E+00  0.0000E+00  0.0000E+00  0.0000E+00  0.0000E+00
     -4.904  0.0000E+00  0.0000E+00  0.0000E+00  0.0000E+00  0.0000E+00  0.0000E+00  0.0000E+00  0.0000E+00  0.0000E+00  0.0000E+00  0.0000E+00  0.0000E+00  0.0000E+00  0.0000E+00  0.0000E+00  0.0000E+00  0.0000E+00  0.0000E+00
     -4.747  0.0000E+00  0.0000E+00  0.0000E+00  0.0000E+00  0.0000E+00  0.0000E+00  0.0000E+00  0.0000E+00  0.0000E+00  0.0000E+00  0.0000E+00  0.0000E+00  0.0000E+00  0.0000E+00  0.0000E+00  0.0000E+00  0.0000E+00  0.0000E+00
     -4.591  0.0000E+00  0.0000E+00  0.0000E+00  0.0000E+00  0.0000E+00  0.0000E+00  0.0000E+00  0.0000E+00  0.0000E+00  0.0000E+00  0.0000E+00  0.0000E+00  0.0000E+00  0.0000E+00  0.0000E+00  0.0000E+00  0.0000E+00  0.0000E+00
     -4.434  0.0000E+00  0.0000E+00  0.0000E+00  0.0000E+00  0.0000E+00  0.0000E+00  0.0000E+00  0.0000E+00  0.0000E+00  0.0000E+00  0.0000E+00  0.0000E+00  0.0000E+00  0.0000E+00  0.0000E+00  0.0000E+00  0.0000E+00  0.0000E+00
     -4.277  0.0000E+00  0.0000E+00  0.0000E+00  0.0000E+00  0.0000E+00  0.0000E+00  0.0000E+00  0.0000E+00  0.0000E+00  0.0000E+00  0.0000E+00  0.0000E+00  0.0000E+00  0.0000E+00  0.0000E+00  0.0000E+00  0.0000E+00  0.0000E+00
     -4.121  0.0000E+00  0.0000E+00  0.0000E+00  0.0000E+00  0.0000E+00  0.0000E+00  0.0000E+00  0.0000E+00  0.0000E+00  0.0000E+00  0.0000E+00  0.0000E+00  0.0000E+00  0.0000E+00  0.0000E+00  0.0000E+00  0.0000E+00  0.0000E+00
     -3.964  0.0000E+00  0.0000E+00  0.0000E+00  0.0000E+00  0.0000E+00  0.0000E+00  0.0000E+00  0.0000E+00  0.0000E+00  0.0000E+00  0.0000E+00  0.0000E+00  0.0000E+00  0.0000E+00  0.0000E+00  0.0000E+00  0.0000E+00  0.0000E+00
     -3.808  0.0000E+00  0.0000E+00  0.0000E+00  0.0000E+00  0.0000E+00  0.0000E+00  0.0000E+00  0.0000E+00  0.0000E+00  0.0000E+00  0.0000E+00  0.0000E+00  0.0000E+00  0.0000E+00  0.0000E+00  0.0000E+00  0.0000E+00  0.0000E+00
     -3.651  0.0000E+00  0.0000E+00  0.0000E+00  0.0000E+00  0.0000E+00  0.0000E+00  0.0000E+00  0.0000E+00  0.0000E+00  0.0000E+00  0.0000E+00  0.0000E+00  0.0000E+00  0.0000E+00  0.0000E+00  0.0000E+00  0.0000E+00  0.0000E+00
     -3.495  0.0000E+00  0.0000E+00  0.0000E+00  0.0000E+00  0.0000E+00  0.0000E+00  0.0000E+00  0.0000E+00  0.0000E+00  0.0000E+00  0.0000E+00  0.0000E+00  0.0000E+00  0.0000E+00  0.0000E+00  0.0000E+00  0.0000E+00  0.0000E+00
     -3.338  0.0000E+00  0.0000E+00  0.0000E+00  0.0000E+00  0.0000E+00  0.0000E+00  0.0000E+00  0.0000E+00  0.0000E+00  0.0000E+00  0.0000E+00  0.0000E+00  0.0000E+00  0.0000E+00  0.0000E+00  0.0000E+00  0.0000E+00  0.0000E+00
     -3.181  0.7876E-02  0.0000E+00  0.7209E-04  0.0000E+00  0.4861E-04  0.0000E+00  0.3023E-03  0.0000E+00  0.2295E-04  0.0000E+00  0.6188E-05  0.0000E+00  0.8310E-05  0.0000E+00  0.5904E-05  0.0000E+00  0.9835E-05  0.0000E+00
     -3.025  0.1185E-01  0.0000E+00  0.1579E-03  0.0000E+00  0.9810E-04  0.0000E+00  0.5447E-03  0.0000E+00  0.5644E-04  0.0000E+00  0.1701E-04  0.0000E+00  0.2124E-04  0.0000E+00  0.1302E-04  0.0000E+00  0.2526E-04  0.0000E+00
     -2.868  0.1502E-01  0.6768E-02  0.2460E-03  0.5300E-04  0.1383E-03  0.3593E-04  0.8143E-03  0.2483E-03  0.9857E-04  0.1011E-04  0.3241E-04  0.2871E-05  0.3949E-04  0.3793E-05  0.2042E-04  0.2851E-05  0.4924E-04  0.4978E-05
     -2.712  0.1740E-01  0.1080E-01  0.3363E-03  0.1374E-03  0.1692E-03  0.8667E-04  0.1111E-02  0.4790E-03  0.1493E-03  0.2885E-04  0.5238E-04  0.8677E-05  0.6305E-04  0.1072E-04  0.2809E-04  0.7294E-05  0.8175E-04  0.1315E-04
     -2.555  0.2162E-01  0.1405E-01  0.5102E-03  0.2240E-03  0.2613E-03  0.1285E-03  0.1554E-02  0.7350E-03  0.2373E-03  0.5230E-04  0.1139E-03  0.1658E-04  0.1019E-03  0.2062E-04  0.4900E-04  0.1170E-04  0.1344E-03  0.2606E-04
     -2.399  0.2496E-01  0.1651E-01  0.7009E-03  0.3129E-03  0.3812E-03  0.1614E-03  0.1969E-02  0.1016E-02  0.3531E-03  0.8047E-04  0.2181E-03  0.2657E-04  0.1540E-03  0.3350E-04  0.8591E-04  0.1606E-04  0.2045E-03  0.4370E-04
     -2.242  0.2701E-01  0.1998E-01  0.8969E-03  0.4586E-03  0.5208E-03  0.2307E-03  0.2335E-02  0.1408E-02  0.4937E-03  0.1234E-03  0.3620E-03  0.5055E-04  0.2184E-03  0.5250E-04  0.1379E-03  0.2496E-04  0.2907E-03  0.6997E-04
     -2.085  0.2623E-01  0.2344E-01  0.1070E-02  0.6439E-03  0.6925E-03  0.3425E-03  0.2712E-02  0.1819E-02  0.7231E-03  0.1816E-03  0.5663E-03  0.9771E-04  0.3542E-03  0.7763E-04  0.2344E-03  0.4260E-04  0.4961E-03  0.1055E-03
     -1.929  0.2825E-01  0.2565E-01  0.1245E-02  0.8345E-03  0.8295E-03  0.4735E-03  0.3174E-02  0.2180E-02  0.1059E-02  0.2494E-03  0.7281E-03  0.1637E-03  0.5411E-03  0.1071E-03  0.3258E-03  0.6747E-04  0.6790E-03  0.1483E-03
     -1.772  0.3037E-01  0.2437E-01  0.1426E-02  0.1010E-02  0.9715E-03  0.6483E-03  0.3686E-02  0.2486E-02  0.1458E-02  0.3307E-03  0.9177E-03  0.2685E-03  0.7677E-03  0.1538E-03  0.4368E-03  0.1132E-03  0.8918E-03  0.2412E-03
     -1.616  0.3260E-01  0.2602E-01  0.1613E-02  0.1178E-02  0.1119E-02  0.7762E-03  0.4248E-02  0.2891E-02  0.1920E-02  0.4685E-03  0.1135E-02  0.3387E-03  0.1034E-02  0.2242E-03  0.5675E-03  0.1531E-03  0.1134E-02  0.3259E-03
     -1.459  0.3494E-01  0.2773E-01  0.1806E-02  0.1351E-02  0.1271E-02  0.9084E-03  0.4861E-02  0.3338E-02  0.2445E-02  0.6301E-03  0.1381E-02  0.4192E-03  0.1341E-02  0.3084E-03  0.7178E-03  0.2008E-03  0.1407E-02  0.4235E-03
     -1.303  0.3739E-01  0.2952E-01  0.2005E-02  0.1529E-02  0.1428E-02  0.1045E-02  0.5524E-02  0.3827E-02  0.3032E-02  0.8155E-03  0.1654E-02  0.5100E-03  0.1687E-02  0.4063E-03  0.8878E-03  0.2563E-03  0.1709E-02  0.5338E-03
     -1.146  0.3971E-01  0.3137E-01  0.2288E-02  0.1713E-02  0.1726E-02  0.1186E-02  0.6316E-02  0.4358E-02  0.4055E-02  0.1025E-02  0.2533E-02  0.6111E-03  0.2370E-02  0.5179E-03  0.1357E-02  0.3195E-03  0.2186E-02  0.6568E-03
     -0.989  0.4288E-01  0.3329E-01  0.2648E-02  0.1902E-02  0.2114E-02  0.1331E-02  0.7357E-02  0.4931E-02  0.5634E-02  0.1258E-02  0.3919E-02  0.7226E-03  0.3505E-02  0.6432E-03  0.1929E-02  0.3904E-03  0.3024E-02  0.7927E-03
     -0.833  0.4553E-01  0.3528E-01  0.2952E-02  0.2097E-02  0.2484E-02  0.1480E-02  0.8516E-02  0.5547E-02  0.7555E-02  0.1514E-02  0.5564E-02  0.8443E-03  0.4994E-02  0.7823E-03  0.2585E-02  0.4691E-03  0.4168E-02  0.9412E-03
     -0.676  0.4735E-01  0.3630E-01  0.3116E-02  0.2337E-02  0.2735E-02  0.1753E-02  0.9742E-02  0.6216E-02  0.1041E-01  0.1975E-02  0.7454E-02  0.1241E-02  0.7221E-02  0.1064E-02  0.3303E-02  0.6796E-03  0.5655E-02  0.1171E-02
     -0.520  0.5115E-01  0.3781E-01  0.3383E-02  0.2610E-02  0.3021E-02  0.2049E-02  0.1126E-01  0.6977E-02  0.1498E-01  0.2530E-02  0.1003E-01  0.1721E-02  0.1055E-01  0.1424E-02  0.4089E-02  0.8793E-03  0.7477E-02  0.1504E-02
     -0.363  0.5607E-01  0.3892E-01  0.3684E-02  0.2850E-02  0.3325E-02  0.2342E-02  0.1301E-01  0.7766E-02  0.2192E-01  0.3151E-02  0.1360E-01  0.2267E-02  0.1556E-01  0.1858E-02  0.4980E-02  0.1095E-02  0.9712E-02  0.1927E-02
     -0.207  0.6168E-01  0.3932E-01  0.3992E-02  0.2988E-02  0.3656E-02  0.2561E-02  0.1495E-01  0.8497E-02  0.3092E-01  0.3914E-02  0.1806E-01  0.2839E-02  0.2209E-01  0.2402E-02  0.5999E-02  0.1320E-02  0.1235E-01  0.2422E-02
     -0.050  0.6798E-01  0.4023E-01  0.4309E-02  0.3155E-02  0.4013E-02  0.2788E-02  0.1710E-01  0.9287E-02  0.4196E-01  0.4875E-02  0.2341E-01  0.3475E-02  0.3014E-01  0.3059E-02  0.7146E-02  0.1557E-02  0.1539E-01  0.2962E-02
      0.107  0.9299E-01  0.4183E-01  0.5091E-02  0.3361E-02  0.5823E-02  0.3017E-02  0.2403E-01  0.1017E-01  0.1008E+00  0.6170E-02  0.7100E-01  0.4210E-02  0.7883E-01  0.3902E-02  0.1218E-01  0.1799E-02  0.3551E-01  0.3553E-02
      0.263  0.9190E-01  0.4375E-01  0.4942E-02  0.3582E-02  0.6676E-02  0.3250E-02  0.3033E-01  0.1114E-01  0.1189E+00  0.7822E-02  0.9025E-01  0.5077E-02  0.1362E+00  0.4964E-02  0.2111E-01  0.2059E-02  0.8009E-01  0.4209E-02
      0.420  0.8072E-01  0.4583E-01  0.4917E-02  0.3808E-02  0.6268E-02  0.3491E-02  0.3467E-01  0.1218E-01  0.1275E+00  0.9781E-02  0.9463E-01  0.6069E-02  0.2135E+00  0.6221E-02  0.3072E-01  0.2344E-02  0.1420E+00  0.4929E-02
      0.576  0.7254E-01  0.4808E-01  0.6372E-02  0.4039E-02  0.6468E-02  0.3740E-02  0.4620E-01  0.1330E-01  0.1431E+00  0.1205E-01  0.9824E-01  0.7185E-02  0.3833E+00  0.7673E-02  0.4612E-01  0.2651E-02  0.2131E+00  0.5715E-02
      0.733  0.4015E-01  0.5049E-01  0.5987E-02  0.4276E-02  0.5082E-02  0.3996E-02  0.2431E-01  0.1449E-01  0.1035E+00  0.1462E-01  0.1197E+00  0.8427E-02  0.2089E+00  0.9320E-02  0.5824E-01  0.2983E-02  0.1397E+00  0.6565E-02
      0.889  0.1789E-01  0.5277E-01  0.4848E-02  0.4543E-02  0.2655E-02  0.4414E-02  0.1286E-01  0.1648E-01  0.5433E-01  0.1802E-01  0.1012E+00  0.1118E-01  0.8633E-01  0.1208E-01  0.4945E-01  0.3727E-02  0.1176E+00  0.8878E-02
      1.046  0.4360E-02  0.5859E-01  0.5130E-02  0.5157E-02  0.1440E-02  0.5350E-02  0.9768E-02  0.1901E-01  0.1613E-01  0.2531E-01  0.6826E-01  0.1909E-01  0.6900E-01  0.1767E-01  0.1959E-01  0.5019E-02  0.1287E+00  0.1263E-01
      1.203  0.1082E-02  0.6652E-01  0.2954E-01  0.5768E-02  0.2301E-01  0.6291E-02  0.1608E-01  0.2189E-01  0.4228E+00  0.3710E-01  0.1916E+00  0.3064E-01  0.2031E+00  0.2639E-01  0.6375E+00  0.6436E-02  0.2472E+00  0.1767E-01
      1.359  0.3751E-02  0.7706E-01  0.2420E-01  0.5706E-02  0.1555E-01  0.6532E-02  0.1448E-01  0.2594E-01  0.2505E+00  0.6226E-01  0.3304E+00  0.4602E-01  0.2090E+00  0.4452E-01  0.6592E+00  0.8129E-02  0.2582E+00  0.2447E-01
      1.516  0.7003E-02  0.7049E-01  0.1485E-01  0.5295E-02  0.1261E-01  0.6485E-02  0.7030E-02  0.2650E-01  0.2088E+00  0.6226E-01  0.1558E+00  0.4688E-01  0.1331E+00  0.4865E-01  0.3374E+00  0.1003E-01  0.1131E+00  0.2629E-01
      1.672  0.1072E-01  0.6636E-01  0.2226E-01  0.5028E-02  0.2381E-01  0.6411E-02  0.1307E-01  0.2734E-01  0.2600E+00  0.6305E-01  0.2026E+00  0.4970E-01  0.6827E-01  0.5279E-01  0.2671E+00  0.1228E-01  0.9267E-01  0.2888E-01
      1.829  0.1932E-01  0.6006E-01  0.3608E-01  0.4657E-02  0.3194E-01  0.6151E-02  0.2858E-01  0.2840E-01  0.4252E+00  0.6070E-01  0.4385E+00  0.5027E-01  0.8678E-01  0.5728E-01  0.3673E+00  0.1476E-01  0.1750E+00  0.3443E-01
      1.985  0.2601E-01  0.5891E-01  0.4790E-01  0.5053E-02  0.3101E-01  0.6592E-02  0.3967E-01  0.3914E-01  0.6114E+00  0.6822E-01  0.4389E+00  0.5719E-01  0.1140E+00  0.1035E+00  0.5168E+00  0.2149E-01  0.2709E+00  0.9776E-01
      2.142  0.1024E-01  0.5181E-01  0.1854E-01  0.6878E-02  0.1348E-01  0.7294E-02  0.1210E-01  0.4540E-01  0.9194E-01  0.7084E-01  0.1428E+00  0.7132E-01  0.3361E-01  0.1921E+00  0.1364E+00  0.2896E-01  0.1175E+00  0.1843E+00
      2.299  0.6463E-02  0.3440E-01  0.1238E-01  0.6882E-02  0.8572E-02  0.6612E-02  0.8341E-02  0.2671E-01  0.6346E-01  0.5996E-01  0.1270E+00  0.6786E-01  0.3323E-01  0.1567E+00  0.1119E+00  0.2972E-01  0.9653E-01  0.9019E-01
      2.455  0.4641E-02  0.1315E-01  0.9337E-02  0.5237E-02  0.6530E-02  0.3234E-02  0.5972E-02  0.1139E-01  0.6818E-01  0.2347E-01  0.1284E+00  0.5639E-01  0.5541E-01  0.6782E-01  0.1063E+00  0.2113E-01  0.8636E-01  0.5534E-01