    1    1    1    2
  0.1350000E+02  0.2598076E-09  0.2598076E-09  0.2598076E-09  0.5000000E-15
  1.000000000000000E-004
  CAR 
 Fe BCC                                  
      8     26     12
 
  0.6250000E-01  0.6250000E-01  0.6250000E-01  0.1562500E-01
    1       -2.692435     -2.337463   1.000000   1.000000
    2        1.862156      3.879108   1.000000   1.004751
    3        1.862156      3.879108   1.000000   1.043656
    4        2.489870      4.596090   1.000000   0.000000
    5        3.019116      5.459214   1.000000   0.000000
    6        3.019116      5.459214   1.002662   0.000000
    7       23.418340     23.903663   0.000000   0.000000
    8       23.418340     23.903663   0.000000   0.000000
    9       25.847864     26.699423   0.000000   0.000000
   10       28.016906     28.101525   0.000000   0.000000
   11       31.540617     32.078519   0.000000   0.000000
   12       31.540617     32.078519   0.000000   0.000000
 
  0.1875000E+00  0.6250000E-01  0.6250000E-01  0.4687500E-01
    1       -1.243004     -0.817697   1.000000   1.000000
    2        1.542576      3.486044   1.000000   1.003422
    3        1.714861      3.607167   1.000000   1.014527
    4        2.958167      5.355040   1.000000   0.000000
    5        3.109912      5.451209   1.000009   0.000000
    6        3.296399      5.578574   0.957842   0.000000
    7       18.107154     18.882057   0.000000   0.000000
    8       21.180543     21.732815   0.000000   0.000000
    9       22.506207     23.272161   0.000000   0.000000
   10       28.044739     28.345286   0.000000   0.000000
   11       30.877710     31.560393   0.000000   0.000000
   12       32.362892     32.815455   0.000000   0.000000
 
  0.3125000E+00  0.6250000E-01  0.6250000E-01  0.4687500E-01
    1       -0.029970      0.941349   1.000000   1.000000
    2        1.265130      3.146306   1.000000   1.000000
    3        2.308209      3.660518   1.000000   1.010711
    4        3.055170      5.444019   1.000000   0.000000
    5        3.182122      5.681220   1.008789   0.000000
    6        4.461622      6.501732   0.075134   0.000000
    7       12.951349     13.989294   0.000000   0.000000
    8       19.643225     20.174072   0.000000   0.000000
    9       20.483779     21.186339   0.000000   0.000000
   10       27.332507     27.827357   0.000000   0.000000
   11       30.233857     30.931183   0.000000   0.000000
   12       35.368962     35.822382   0.000000   0.000000
 
  0.4375000E+00  0.6250000E-01  0.6250000E-01  0.2343750E-01
    1        0.101746      1.494653   1.000000   1.000000
    2        1.158120      3.015938   1.000000   1.000000
    3        3.101847      4.322168   1.000000   0.356289
    4        3.144951      5.496683   1.000000   0.000000
    5        3.211420      5.724861   1.035573   0.000000
    6        5.766687      7.260390  -0.008025   0.000000
    7        9.990750     11.388503   0.000000   0.000000
    8       19.092104     19.603586   0.000000   0.000000
    9       19.728709     20.390463   0.000000   0.000000
   10       27.057441     27.609423   0.000000   0.000000
   11       30.099172     30.820709   0.000000   0.000000
   12       35.747152     36.004278   0.000000   0.000000
 
 -0.6250000E-01  0.6250000E-01  0.6250000E-01  0.1171875E-01
    1       -3.238406     -2.889980   1.000000   1.000000
    2        2.017501      4.069341   1.000000   0.461272
    3        2.017501      4.069341   1.000000   0.163343
    4        2.086745      4.157010   1.000000   0.000000
    5        2.964522      5.391807   1.000000   0.000000
    6        3.115223      5.584881   1.000000   0.000000
    7       25.524547     25.764733   0.000000   0.000000
    8       26.610467     26.905340   0.000000   0.000000
    9       26.610467     26.905340   0.000000   0.000000
   10       28.730777     29.291734   0.000000   0.000000
   11       30.271637     31.006308   0.000000   0.000000
   12       30.271637     31.006309   0.000000   0.000000
 
  0.1875000E+00  0.1875000E+00  0.6250000E-01  0.4687500E-01
    1        0.161398      0.848909   1.000000   1.000000
    2        1.334746      3.148709   1.000000   1.000000
    3        1.461209      3.245481   1.000000   1.003262
    4        3.017135      5.424512   1.000000   0.000000
    5        3.202602      5.683749   1.000008   0.000000
    6        4.618937      6.650361   0.054913   0.000000
    7       15.888250     16.752790   0.000000   0.000000
    8       16.338171     17.101255   0.000000   0.000000
    9       19.875430     20.548511   0.000000   0.000000
   10       29.769343     30.055181   0.000000   0.000000
   11       32.612080     33.152646   0.000000   0.000000
   12       34.756055     35.252531   0.000000   0.000000
 
  0.3125000E+00  0.1875000E+00  0.6250000E-01  0.9375000E-01
    1        0.608555      2.007840   1.000000   1.000000
    2        1.190161      2.964924   1.000000   1.000000
    3        1.980350      3.399966   1.000000   1.015813
    4        3.120620      5.537400   1.000000   0.000000
    5        3.272122      5.744185   1.000755   0.000000
    6        6.788767      8.315197  -0.006475   0.000000
    7       11.427843     12.531802   0.000000   0.000000
    8       15.004984     15.794682   0.000000   0.000000
    9       18.781474     19.443209   0.000000   0.000000
   10       29.946673     30.334003   0.000000   0.000000
   11       33.804005     34.196517   0.000000   0.000000
   12       35.180139     35.752336   0.000000   0.000000
 
 -0.1875000E+00  0.1875000E+00  0.6250000E-01  0.4687500E-01
    1       -2.175114     -1.806430   1.000000   1.000000
    2        1.810946      3.815406   1.000000   1.011928
    3        1.972558      3.965702   1.000000   0.903646
    4        2.575144      4.700614   1.000000   0.000000
    5        2.770954      5.127916   1.000000   0.000000
    6        3.187227      5.666677   1.008520   0.000000
    7       20.864507     21.526660   0.000000   0.000000
    8       24.188160     24.576837   0.000000   0.000000
    9       24.583074     25.256149   0.000000   0.000000
   10       28.166313     28.752013   0.000000   0.000000
   11       28.257250     28.874789   0.000000   0.000000
   12       29.771514     30.241055   0.000000   0.000000
 
  0.3125000E+00  0.3125000E+00  0.6250000E-01  0.1562500E-01
    1        0.884829      2.560098   1.000000   1.000000
    2        1.478042      3.033013   1.000000   1.000000
    3        1.478042      3.033013   1.000000   1.002204
    4        3.228905      5.672551   1.000000   0.000000
    5        3.228905      5.672551   1.000000   0.000000
    6        9.985544     11.138341   0.000000   0.000000
    7        9.985544     11.138341   0.000000   0.000000
    8       11.789202     12.740621   0.000000   0.000000
    9       18.360635     19.049240   0.000000   0.000000
   10       32.206289     32.537457   0.000000   0.000000
   11       32.206289     32.537457   0.000000   0.000000
   12       37.839440     38.639906   0.000000   0.000000
 
 -0.3125000E+00  0.3125000E+00  0.6250000E-01  0.4687500E-01
    1       -0.600480      0.002458   1.000000   1.000000
    2        1.500492      3.439215   1.000000   1.003571
    3        2.025781      3.712529   1.000000   1.020911
    4        2.902142      5.206226   1.000000   0.000000
    5        3.319317      5.608056   1.001073   0.000000
    6        3.374200      5.756638   0.838780   0.000000
    7       15.338352     16.253566   0.000000   0.000000
    8       22.015908     22.382583   0.000000   0.000000
    9       22.348689     23.098189   0.000000   0.000000
   10       26.723255     27.391196   0.000000   0.000000
   11       28.249652     28.890553   0.000000   0.000000
   12       31.123949     31.603850   0.000000   0.000000
 
 -0.1875000E+00  0.3125000E+00  0.6250000E-01  0.4687500E-01
    1       -0.832765     -0.359873   1.000000   1.000000
    2        1.675948      3.617188   1.000000   1.006782
    3        1.800034      3.727132   1.000000   1.048755
    4        2.655883      4.935977   1.000000   0.000000
    5        3.171134      5.390488   1.000008   0.000000
    6        3.459827      5.845610   0.864633   0.000000
    7       18.279602     19.073632   0.000000   0.000000
    8       18.866974     19.591540   0.000000   0.000000
    9       25.019113     25.594601   0.000000   0.000000
   10       25.304317     25.809387   0.000000   0.000000
   11       28.588637     29.199164   0.000000   0.000000
   12       32.860136     33.318130   0.000000   0.000000
 
 -0.4375000E+00  0.4375000E+00  0.6250000E-01  0.4687500E-01
    1       -0.013466      1.271577   1.000000   1.000000
    2        1.288578      3.184960   1.000000   1.000000
    3        2.681269      4.163472   1.000000   0.446457
    4        3.034250      5.369575   1.000000   0.000000
    5        4.013834      6.103214   0.939285   0.000000
    6        4.498631      6.353281   0.014304   0.000000
    7       10.865225     12.132811   0.000000   0.000000
    8       20.800225     21.132125   0.000000   0.000000
    9       20.853128     21.536821   0.000000   0.000000
   10       26.079826     26.818730   0.000000   0.000000
   11       28.376256     29.092577   0.000000   0.000000
   12       32.954932     33.333830   0.000000   0.000000
 
 -0.3125000E+00  0.4375000E+00  0.6250000E-01  0.9375000E-01
    1        0.276579      1.306849   1.000000   1.000000
    2        1.421642      3.244806   1.000000   1.000397
    3        1.871807      3.576564   1.000000   1.041356
    4        2.878388      5.154569   1.000000   0.000000
    5        3.479893      5.832081   1.002303   0.000000
    6        4.877754      6.773847  -0.021410   0.000000
    7       13.319949     14.318704   0.000000   0.000000
    8       16.936324     17.694179   0.000000   0.000000
    9       23.030054     23.529896   0.000000   0.000000
   10       26.018881     26.626126   0.000000   0.000000
   11       29.285643     29.848883   0.000000   0.000000
   12       33.223864     33.798384   0.000000   0.000000
 
 -0.4375000E+00 -0.4375000E+00  0.6250000E-01  0.4687500E-01
    1        0.385956      1.854395   1.000000   1.000000
    2        1.399168      3.272533   1.000000   1.000000
    3        2.043134      3.596432   1.000000   1.035238
    4        2.958709      5.263297   1.000000   0.000000
    5        3.754257      6.054570   1.012271   0.000000
    6        6.739741      8.036592  -0.003202   0.000000
    7       10.114761     11.446602   0.000000   0.000000
    8       16.311190     17.051175   0.000000   0.000000
    9       22.307042     22.779649   0.000000   0.000000
   10       26.238061     26.926065   0.000000   0.000000
   11       30.497168     30.879215   0.000000   0.000000
   12       32.514607     33.173952   0.000000   0.000000
 
 -0.3125000E+00 -0.4375000E+00  0.6250000E-01  0.4687500E-01
    1        0.934787      2.445305   1.000000   1.000000
    2        1.201654      2.901564   1.000000   1.000000
    3        1.615133      3.331157   1.000000   1.016140
    4        3.107039      5.399970   1.000000   0.000000
    5        3.458989      5.782010   1.000152   0.000000
    6        7.730741      9.101303  -0.001165   0.000000
    7       11.721319     12.804260   0.000000   0.000000
    8       12.604356     13.497558   0.000000   0.000000
    9       23.235855     23.825508   0.000000   0.000000
   10       26.621946     27.097835   0.000000   0.000000
   11       28.540528     29.029722   0.000000   0.000000
   12       34.030647     34.871275   0.000000   0.000000
 
  0.1875000E+00  0.1875000E+00  0.1875000E+00  0.1562500E-01
    1        1.174631      2.286774   1.000000   1.000000
    2        1.174631      2.900976   1.000000   1.000000
    3        1.225277      2.900976   1.000000   1.002687
    4        3.190064      5.680495   1.000000   0.000000
    5        3.190064      5.680495   1.000000   0.000000
    6        6.725150      8.364525  -0.007880   0.000000
    7       14.387542     15.285632   0.000000   0.000000
    8       14.387542     15.285632   0.000000   0.000000
    9       14.964642     15.653490   0.000000   0.000000
   10       34.247702     34.339518   0.000000   0.000000
   11       36.252482     36.654586   0.000000   0.000000
   12       36.252482     36.654586   0.000000   0.000000
 
  0.3125000E+00  0.1875000E+00  0.1875000E+00  0.2343750E-01
    1        1.064629      2.611672   1.000000   1.000000
    2        1.137352      2.831631   1.000000   1.000000
    3        1.653745      3.134266   1.000000   1.003783
    4        3.214518      5.706825   1.000000   0.000000
    5        3.230260      5.749484   1.000000   0.000000
    6        9.358000     10.533277   0.000000   0.000000
    7       10.795350     11.913928   0.000000   0.000000
    8       13.875080     14.783041   0.000000   0.000000
    9       14.247219     14.969378   0.000000   0.000000
   10       35.017752     35.241182   0.000000   0.000000
   11       37.951771     38.277282   0.000000   0.000000
   12       37.997297     38.473433   0.000000   0.000000
 
 -0.1875000E+00  0.1875000E+00  0.1875000E+00  0.1171875E-01
    1       -1.220004     -0.804244   1.000000   1.000000
    2        2.143132      4.154259   1.000000   0.771838
    3        2.143132      4.154259   1.000000   0.189314
    4        2.177967      4.386726   1.000000   0.000000
    5        2.589332      4.726099   1.000000   0.000000
    6        3.452992      5.901462   0.980073   0.000000
    7       21.347418     21.929998   0.000000   0.000000
    8       21.550404     22.325358   0.000000   0.000000
    9       21.550404     22.325358   0.000000   0.000000
   10       23.337458     23.851837   0.000000   0.000000
   11       32.142417     32.561781   0.000000   0.000000
   12       32.142417     32.561781   0.000000   0.000000
 
 -0.3125000E+00  0.3125000E+00  0.1875000E+00  0.4687500E-01
    1        0.071381      0.799887   1.000000   1.000000
    2        1.560717      3.506167   1.000000   1.003917
    3        2.036535      4.022006   1.000000   0.550504
    4        2.573771      4.678350   1.000000   0.000000
    5        3.284813      5.505021   1.000298   0.000000
    6        4.118383      6.242309   0.238934   0.000000
    7       16.130676     17.002568   0.000000   0.000000
    8       19.141480     19.918672   0.000000   0.000000
    9       20.651828     21.271649   0.000000   0.000000
   10       23.999453     24.584074   0.000000   0.000000
   11       31.198277     31.815174   0.000000   0.000000
   12       32.731097     33.257190   0.000000   0.000000
 
 -0.4375000E+00  0.4375000E+00  0.1875000E+00  0.4687500E-01
    1        0.482340      1.913371   1.000000   1.000000
    2        1.489181      3.147776   1.000000   1.000000
    3        1.881275      3.837058   1.000000   0.831676
    4        2.746909      4.920542   1.000000   0.000000
    5        3.950696      6.279785   0.995781   0.000000
    6        6.305669      7.667283  -0.015900   0.000000
    7       11.395864     12.522724   0.000000   0.000000
    8       17.694231     18.413774   0.000000   0.000000
    9       19.869844     20.505803   0.000000   0.000000
   10       26.507677     27.035255   0.000000   0.000000
   11       30.349846     31.001361   0.000000   0.000000
   12       30.715163     31.375464   0.000000   0.000000
 
 -0.3125000E+00  0.4375000E+00  0.1875000E+00  0.4687500E-01
    1        0.719065      1.980977   1.000000   1.000000
    2        1.066913      2.918169   1.000000   1.000402
    3        2.106711      4.069673   1.000000   0.452326
    4        2.879567      5.013242   1.000000   0.000000
    5        3.619394      5.889250   1.000115   0.000000
    6        6.139562      7.648149  -0.020514   0.000000
    7       14.250413     15.201177   0.000000   0.000000
    8       14.606405     15.404021   0.000000   0.000000
    9       21.981004     22.655916   0.000000   0.000000
   10       23.033971     23.620125   0.000000   0.000000
   11       29.944158     30.572337   0.000000   0.000000
   12       32.238969     32.968515   0.000000   0.000000
 
 -0.4375000E+00 -0.4375000E+00  0.1875000E+00  0.4687500E-01
    1        0.753978      2.435157   1.000000   1.000000
    2        1.058103      2.723311   1.000000   1.000000
    3        1.943375      3.847132   1.000000   0.696610
    4        3.123112      5.296073   1.000000   0.000000
    5        3.802930      6.093304   1.000488   0.000000
    6        8.898808      9.982243   0.000000   0.000000
    7       10.639638     11.756623   0.000000   0.000000
    8       13.790196     14.617566   0.000000   0.000000
    9       21.908335     22.556345   0.000000   0.000000
   10       24.937928     25.483506   0.000000   0.000000
   11       27.233897     27.957428   0.000000   0.000000
   12       31.403604     32.133024   0.000000   0.000000
 
 -0.3125000E+00  0.3125000E+00  0.3125000E+00  0.1171875E-01
    1        0.542418      1.736353   1.000000   1.000000
    2        1.047508      2.978310   1.000000   1.002440
    3        2.758207      4.808578   1.000000  -0.151423
    4        2.758207      4.808578   1.000000   0.000000
    5        3.314528      5.553155   1.000000   0.000000
    6        5.576318      7.121899  -0.028298   0.000000
    7       16.522756     17.268281   0.000000   0.000000
    8       16.522756     17.268281   0.000000   0.000000
    9       19.043117     19.951204   0.000000   0.000000
   10       20.408158     21.067197   0.000000   0.000000
   11       30.793558     31.520605   0.000000   0.000000
   12       35.775526     36.392555   0.000000   0.000000
 
 -0.4375000E+00  0.4375000E+00  0.3125000E+00  0.4687500E-01
    1        0.550843      2.177614   1.000000   1.000000
    2        0.666091      2.443314   1.000000   1.000000
    3        2.868663      4.955476   1.000000  -0.128682
    4        3.089894      5.182400   1.000000   0.000000
    5        3.863466      6.178863   1.000000   0.000000
    6        8.366935      9.405030   0.000000   0.000000
    7       12.577567     13.430998   0.000000   0.000000
    8       14.933215     15.593425   0.000000   0.000000
    9       19.025595     19.922833   0.000000   0.000000
   10       21.578928     22.291972   0.000000   0.000000
   11       26.317710     27.114121   0.000000   0.000000
   12       35.297571     35.869976   0.000000   0.000000
 
 -0.4375000E+00 -0.4375000E+00  0.3125000E+00  0.1562500E-01
    1        0.453819      2.190511   1.000000   1.000000
    2        0.453819      2.190511   1.000000   1.000000
    3        2.950973      5.016279   1.000000  -0.074506
    4        3.742964      6.010716   1.000000   0.000000
    5        3.742964      6.010716   1.000000   0.000000
    6       11.470130     12.281298   0.000000   0.000000
    7       11.470130     12.281298   0.000000   0.000000
    8       12.292214     13.015505   0.000000   0.000000
    9       20.464296     21.272029   0.000000   0.000000
   10       20.464296     21.272029   0.000000   0.000000
   11       23.665065     24.528386   0.000000   0.000000
   12       35.764383     36.321062   0.000000   0.000000
 
 -0.4375000E+00  0.4375000E+00  0.4375000E+00  0.1171875E-01
    1        0.245800      1.961019   1.000000   1.000000
    2        0.254094      2.017409   1.000000   1.000000
    3        3.711011      5.968593   1.000000  -0.001117
    4        3.711011      5.968593   1.000000   0.000000
    5        3.836156      6.152279   1.000000   0.000000
    6       10.905351     11.580870   0.000000   0.000000
    7       13.192567     13.713635   0.000000   0.000000
    8       13.192567     13.713635   0.000000   0.000000
    9       18.130672     19.227468   0.000000   0.000000
   10       19.080888     20.025650   0.000000   0.000000
   11       22.302050     23.183485   0.000000   0.000000
   12       39.012515     39.463224   0.000000   0.000000
