       N       E                     dE             d eps       ncg     rms          rms(c)
DAV:   1     0.165672128109E+02    0.16567E+02   -0.35396E+03  1364   0.699E+02
DAV:   2    -0.894414202772E+01   -0.25511E+02   -0.23417E+02  1304   0.115E+02
DAV:   3    -0.960186569946E+01   -0.65772E+00   -0.65746E+00  1456   0.217E+01
DAV:   4    -0.960457553046E+01   -0.27098E-02   -0.27211E-02  1432   0.122E+00
DAV:   5    -0.960459780413E+01   -0.22274E-04   -0.22370E-04  1424   0.117E-01    0.107E+01
DAV:   6    -0.899902441277E+01    0.60557E+00   -0.13444E+01  1392   0.471E+01    0.774E+00
DAV:   7    -0.880203569715E+01    0.19699E+00   -0.15598E+00  1428   0.152E+01    0.366E+00
DAV:   8    -0.879263352837E+01    0.94022E-02   -0.63068E-03  1632   0.611E-01    0.109E+00
DAV:   9    -0.878539891927E+01    0.72346E-02   -0.89699E-03  1896   0.606E-01    0.253E-01
DAV:  10    -0.878504510528E+01    0.35381E-03   -0.33765E-04  1480   0.310E-01    0.423E-02
DAV:  11    -0.878508402409E+01   -0.38919E-04   -0.39017E-05  1676   0.630E-02    0.479E-02
DAV:  12    -0.878509499279E+01   -0.10969E-04   -0.13022E-06  1100   0.121E-02    0.228E-02
DAV:  13    -0.878508018145E+01    0.14811E-04   -0.15403E-06   652   0.120E-02    0.886E-03
DAV:  14    -0.878508264518E+01   -0.24637E-05   -0.23079E-07   660   0.693E-03    0.181E-03
DAV:  15    -0.878508236246E+01    0.28272E-06   -0.56823E-09   632   0.756E-04
   1 F= -.87850824E+01 E0= -.87850824E+01  d E =0.000000E+00  mag=     2.4457
