 vasp.5.4.1 24Jun15 (build Jul 19 2016 16:50:41) complex                        
  
 executed on           IFC91_ompi date 2019.10.17  12:06:15
 running on    4 total cores
 distrk:  each k-point on    4 cores,    1 groups
 distr:  one band on NCORES_PER_BAND=   1 cores,    4 groups


--------------------------------------------------------------------------------------------------------


 INCAR:
 POTCAR:    PAW Fe 03Mar1998                      
 POTCAR:    PAW Fe 03Mar1998                      
   VRHFIN =Fe:  d7 s1                                                           
   LEXCH  = CA                                                                  
   EATOM  =   597.3608 eV,   43.9048 Ry                                         
                                                                                
   TITEL  = PAW Fe 03Mar1998                                                    
   LULTRA =        F    use ultrasoft PP ?                                      
   IUNSCR =        1    unscreen: 0-lin 1-nonlin 2-no                           
   RPACOR =    2.000    partial core radius                                     
   POMASS =   55.847; ZVAL   =    8.000    mass and valenz                      
   RCORE  =    2.300    outmost cutoff radius                                   
   RWIGS  =    2.460; RWIGS  =    1.302    wigner-seitz radius (au A)           
   ENMAX  =  267.969; ENMIN  =  200.977 eV                                      
   RCLOC  =    1.701    cutoff for local pot                                    
   LCOR   =        T    correct aug charges                                     
   LPAW   =        T    paw PP                                                  
   EAUG   =  511.368                                                            
   DEXC   =    0.000                                                            
   RMAX   =    2.356    core radius for proj-oper                               
   RAUG   =    1.300    factor for augmentation sphere                          
   RDEP   =    2.442    radius for radial grids                                 
   RDEPT  =    1.890    core radius for aug-charge                              
                                                                                
   Atomic configuration                                                         
    9 entries                                                                   
     n  l   j            E        occ.                                          
     1  0  0.50     -6959.8071   2.0000                                         
     2  0  0.50      -811.1996   2.0000                                         
     2  1  1.50      -692.1696   6.0000                                         
     3  0  0.50       -88.7875   2.0000                                         
     3  1  1.50       -55.4703   6.0000                                         
     3  2  2.50        -4.0733   7.0000                                         
     4  0  0.50        -4.4654   1.0000                                         
     4  1  1.50        -3.4015   0.0000                                         
     4  3  2.50        -1.3606   0.0000                                         
   Description                                                                  
     l       E           TYP  RCUT    TYP  RCUT                                 
     2     -4.0732951     23  2.300                                             
     2     -5.4338777     23  2.300                                             
     0     -4.4654423     23  2.300                                             
     0      6.8656597     23  2.300                                             
     1     -2.7211652     23  2.300                                             
     1     18.0064603     23  2.300                                             
  local pseudopotential read in
  partial core-charges read in
  partial kinetic energy density read in
  atomic valenz-charges read in
  non local Contribution for L=           2  read in
    real space projection operators read in
  non local Contribution for L=           2  read in
    real space projection operators read in
  non local Contribution for L=           0  read in
    real space projection operators read in
  non local Contribution for L=           0  read in
    real space projection operators read in
  non local Contribution for L=           1  read in
    real space projection operators read in
  non local Contribution for L=           1  read in
    real space projection operators read in
    PAW grid and wavefunctions read in
 
   number of l-projection  operators is LMAX  =           6
   number of lm-projection operators is LMMAX =          18
 
  PAW Fe 03Mar1998                      :
 energy of atom  1       EATOM= -597.3608
 kinetic energy error for atom=    0.0089 (will be added to EATOM!!)
 
 
 POSCAR: Fe BCC                                  
  positions in direct lattice
  velocities in cartesian coordinates
  No initial velocities read in
 exchange correlation table for  LEXCH =        2
   RHO(1)=    0.500       N(1)  =     2000
   RHO(2)=  100.500       N(2)  =     4000
 


--------------------------------------------------------------------------------------------------------


 ion  position               nearest neighbor table
   1  0.000  0.000  0.000-
 
  LATTYP: Found a body centered cubic cell.
 ALAT       =     3.0000000000
  
  Lattice vectors:
  
 A1 = (  -1.5000000000,   1.5000000000,   1.5000000000)
 A2 = (   1.5000000000,  -1.5000000000,   1.5000000000)
 A3 = (   1.5000000000,   1.5000000000,  -1.5000000000)


Analysis of symmetry for initial positions (statically):
=====================================================================
 Subroutine PRICEL returns:
 Original cell was already a primitive cell.
 

 Routine SETGRP: Setting up the symmetry group for a 
 body centered cubic supercell.


 Subroutine GETGRP returns: Found 48 space group operations
 (whereof 48 operations were pure point group operations)
 out of a pool of 48 trial point group operations.


The static configuration has the point symmetry O_h .


Analysis of symmetry for dynamics (positions and initial velocities):
=====================================================================
 Subroutine PRICEL returns:
 Original cell was already a primitive cell.
 

 Routine SETGRP: Setting up the symmetry group for a 
 body centered cubic supercell.


 Subroutine GETGRP returns: Found 48 space group operations
 (whereof 48 operations were pure point group operations)
 out of a pool of 48 trial point group operations.


The dynamic configuration has the point symmetry O_h .


Analysis of structural, dynamic, and magnetic symmetry:
=====================================================================
 Subroutine PRICEL returns:
 Original cell was already a primitive cell.
 

 Routine SETGRP: Setting up the symmetry group for a 
 body centered cubic supercell.


 Subroutine GETGRP returns: Found 48 space group operations
 (whereof 48 operations were pure point group operations)
 out of a pool of 48 trial point group operations.


The magnetic configuration has the point symmetry O_h .


 Subroutine INISYM returns: Found 48 space group operations
 (whereof 48 operations are pure point group operations),
 and found     1 'primitive' translations

 
 
 KPOINTS: K-Points                                

Automatic generation of k-mesh.
Space group operators:
 irot       det(A)        alpha          n_x          n_y          n_z        tau_x        tau_y        tau_z
    1     1.000000     0.000000     1.000000     0.000000     0.000000     0.000000     0.000000     0.000000
    2    -1.000000     0.000000     1.000000     0.000000     0.000000     0.000000     0.000000     0.000000
    3     1.000000   120.000000    -0.577350    -0.577350    -0.577350     0.000000     0.000000     0.000000
    4    -1.000000   120.000000    -0.577350    -0.577350    -0.577350     0.000000     0.000000     0.000000
    5     1.000000   120.000000     0.577350     0.577350     0.577350     0.000000     0.000000     0.000000
    6    -1.000000   120.000000     0.577350     0.577350     0.577350     0.000000     0.000000     0.000000
    7     1.000000    90.000000     0.000000     0.000000    -1.000000     0.000000     0.000000     0.000000
    8    -1.000000    90.000000     0.000000     0.000000    -1.000000     0.000000     0.000000     0.000000
    9     1.000000   180.000000     0.000000     0.707107     0.707107     0.000000     0.000000     0.000000
   10    -1.000000   180.000000     0.000000     0.707107     0.707107     0.000000     0.000000     0.000000
   11     1.000000    90.000000     0.000000     1.000000     0.000000     0.000000     0.000000     0.000000
   12    -1.000000    90.000000     0.000000     1.000000     0.000000     0.000000     0.000000     0.000000
   13     1.000000   180.000000     0.000000     0.000000     1.000000     0.000000     0.000000     0.000000
   14    -1.000000   180.000000     0.000000     0.000000     1.000000     0.000000     0.000000     0.000000
   15     1.000000   120.000000    -0.577350     0.577350     0.577350     0.000000     0.000000     0.000000
   16    -1.000000   120.000000    -0.577350     0.577350     0.577350     0.000000     0.000000     0.000000
   17     1.000000   120.000000    -0.577350     0.577350    -0.577350     0.000000     0.000000     0.000000
   18    -1.000000   120.000000    -0.577350     0.577350    -0.577350     0.000000     0.000000     0.000000
   19     1.000000    90.000000     0.000000     0.000000     1.000000     0.000000     0.000000     0.000000
   20    -1.000000    90.000000     0.000000     0.000000     1.000000     0.000000     0.000000     0.000000
   21     1.000000    90.000000    -1.000000     0.000000     0.000000     0.000000     0.000000     0.000000
   22    -1.000000    90.000000    -1.000000     0.000000     0.000000     0.000000     0.000000     0.000000
   23     1.000000   180.000000     0.707107     0.000000     0.707107     0.000000     0.000000     0.000000
   24    -1.000000   180.000000     0.707107     0.000000     0.707107     0.000000     0.000000     0.000000
   25     1.000000   120.000000     0.577350    -0.577350     0.577350     0.000000     0.000000     0.000000
   26    -1.000000   120.000000     0.577350    -0.577350     0.577350     0.000000     0.000000     0.000000
   27     1.000000   120.000000    -0.577350    -0.577350     0.577350     0.000000     0.000000     0.000000
   28    -1.000000   120.000000    -0.577350    -0.577350     0.577350     0.000000     0.000000     0.000000
   29     1.000000   180.000000     1.000000     0.000000     0.000000     0.000000     0.000000     0.000000
   30    -1.000000   180.000000     1.000000     0.000000     0.000000     0.000000     0.000000     0.000000
   31     1.000000    90.000000     0.000000    -1.000000     0.000000     0.000000     0.000000     0.000000
   32    -1.000000    90.000000     0.000000    -1.000000     0.000000     0.000000     0.000000     0.000000
   33     1.000000   180.000000     0.707107     0.707107     0.000000     0.000000     0.000000     0.000000
   34    -1.000000   180.000000     0.707107     0.707107     0.000000     0.000000     0.000000     0.000000
   35     1.000000    90.000000     1.000000     0.000000     0.000000     0.000000     0.000000     0.000000
   36    -1.000000    90.000000     1.000000     0.000000     0.000000     0.000000     0.000000     0.000000
   37     1.000000   120.000000     0.577350    -0.577350    -0.577350     0.000000     0.000000     0.000000
   38    -1.000000   120.000000     0.577350    -0.577350    -0.577350     0.000000     0.000000     0.000000
   39     1.000000   180.000000     0.000000     1.000000     0.000000     0.000000     0.000000     0.000000
   40    -1.000000   180.000000     0.000000     1.000000     0.000000     0.000000     0.000000     0.000000
   41     1.000000   120.000000     0.577350     0.577350    -0.577350     0.000000     0.000000     0.000000
   42    -1.000000   120.000000     0.577350     0.577350    -0.577350     0.000000     0.000000     0.000000
   43     1.000000   180.000000     0.000000    -0.707107     0.707107     0.000000     0.000000     0.000000
   44    -1.000000   180.000000     0.000000    -0.707107     0.707107     0.000000     0.000000     0.000000
   45     1.000000   180.000000     0.707107    -0.707107     0.000000     0.000000     0.000000     0.000000
   46    -1.000000   180.000000     0.707107    -0.707107     0.000000     0.000000     0.000000     0.000000
   47     1.000000   180.000000     0.707107     0.000000    -0.707107     0.000000     0.000000     0.000000
   48    -1.000000   180.000000     0.707107     0.000000    -0.707107     0.000000     0.000000     0.000000
 
 Subroutine IBZKPT returns following result:
 ===========================================
 
 Found     26 irreducible k-points:
 
 Following reciprocal coordinates:
            Coordinates               Weight
  0.062500  0.062500  0.062500      8.000000
  0.187500  0.062500  0.062500     24.000000
  0.312500  0.062500  0.062500     24.000000
  0.437500  0.062500  0.062500     12.000000
 -0.062500  0.062500  0.062500      6.000000
  0.187500  0.187500  0.062500     24.000000
  0.312500  0.187500  0.062500     48.000000
 -0.187500  0.187500  0.062500     24.000000
  0.312500  0.312500  0.062500      8.000000
 -0.312500  0.312500  0.062500     24.000000
 -0.187500  0.312500  0.062500     24.000000
 -0.437500  0.437500  0.062500     24.000000
 -0.312500  0.437500  0.062500     48.000000
 -0.437500 -0.437500  0.062500     24.000000
 -0.312500 -0.437500  0.062500     24.000000
  0.187500  0.187500  0.187500      8.000000
  0.312500  0.187500  0.187500     12.000000
 -0.187500  0.187500  0.187500      6.000000
 -0.312500  0.312500  0.187500     24.000000
 -0.437500  0.437500  0.187500     24.000000
 -0.312500  0.437500  0.187500     24.000000
 -0.437500 -0.437500  0.187500     24.000000
 -0.312500  0.312500  0.312500      6.000000
 -0.437500  0.437500  0.312500     24.000000
 -0.437500 -0.437500  0.312500      8.000000
 -0.437500  0.437500  0.437500      6.000000
 
 Following cartesian coordinates:
            Coordinates               Weight
  0.125000  0.125000  0.125000      8.000000
  0.125000  0.250000  0.250000     24.000000
  0.125000  0.375000  0.375000     24.000000
  0.125000  0.500000  0.500000     12.000000
  0.125000  0.000000  0.000000      6.000000
  0.250000  0.250000  0.375000     24.000000
  0.250000  0.375000  0.500000     48.000000
  0.250000 -0.125000  0.000000     24.000000
  0.375000  0.375000  0.625000      8.000000
  0.375000 -0.250000  0.000000     24.000000
  0.375000 -0.125000  0.125000     24.000000
  0.500000 -0.375000  0.000000     24.000000
  0.500000 -0.250000  0.125000     48.000000
 -0.375000 -0.375000 -0.875000     24.000000
 -0.375000 -0.250000 -0.750000     24.000000
  0.375000  0.375000  0.375000      8.000000
  0.375000  0.500000  0.500000     12.000000
  0.375000  0.000000  0.000000      6.000000
  0.500000 -0.125000  0.000000     24.000000
  0.625000 -0.250000  0.000000     24.000000
  0.625000 -0.125000  0.125000     24.000000
 -0.250000 -0.250000 -0.875000     24.000000
  0.625000  0.000000  0.000000      6.000000
  0.750000 -0.125000  0.000000     24.000000
 -0.125000 -0.125000 -0.875000      8.000000
  0.875000  0.000000  0.000000      6.000000
 
 TETIRR: Found    534 inequivalent tetrahedra from     3072


--------------------------------------------------------------------------------------------------------




 Dimension of arrays:
   k-points           NKPTS =     26   k-points in BZ     NKDIM =     26   number of bands    NBANDS=     12
   number of dos      NEDOS =    301   number of ions     NIONS =      1
   non local maximal  LDIM  =      6   non local SUM 2l+1 LMDIM =     18
   total plane-waves  NPLWV =   5832
   max r-space proj   IRMAX =      1   max aug-charges    IRDMAX=  15586
   dimension x,y,z NGX =    18 NGY =   18 NGZ =   18
   dimension x,y,z NGXF=    36 NGYF=   36 NGZF=   36
   support grid    NGXF=    36 NGYF=   36 NGZF=   36
   ions per type =               1
 NGX,Y,Z   is equivalent  to a cutoff of  11.52, 11.52, 11.52 a.u.
 NGXF,Y,Z  is equivalent  to a cutoff of  23.04, 23.04, 23.04 a.u.


 I would recommend the setting:
   dimension x,y,z NGX =    17 NGY =   17 NGZ =   17
 SYSTEM =  Fe BCC                                  
 POSCAR =  Fe BCC                                  

 Startparameter for this run:
   NWRITE =      2    write-flag & timer
   PREC   = accura    normal or accurate (medium, high low for compatibility)
   ISTART =      0    job   : 0-new  1-cont  2-samecut
   ICHARG =      2    charge: 1-file 2-atom 10-const
   ISPIN  =      2    spin polarized calculation?
   LNONCOLLINEAR =      F non collinear calculations
   LSORBIT =      F    spin-orbit coupling
   INIWAV =      1    electr: 0-lowe 1-rand  2-diag
   LASPH  =      F    aspherical Exc in radial PAW
   METAGGA=      F    non-selfconsistent MetaGGA calc.

 Electronic Relaxation 1
   ENCUT  =  400.0 eV  29.40 Ry    5.42 a.u.   4.24  4.24  4.24*2*pi/ulx,y,z
   ENINI  =  400.0     initial cutoff
   ENAUG  =  511.4 eV  augmentation charge cutoff
   NELM   =     60;   NELMIN=  2; NELMDL= -5     # of ELM steps 
   EDIFF  = 0.1E-05   stopping-criterion for ELM
   LREAL  =      F    real-space projection
   NLSPLINE    = F    spline interpolate recip. space projectors
   LCOMPAT=      F    compatible to vasp.4.4
   GGA_COMPAT  = T    GGA compatible to vasp.4.4-vasp.4.6
   LMAXPAW     = -100 max onsite density
   LMAXMIX     =    2 max onsite mixed and CHGCAR
   VOSKOWN=      0    Vosko Wilk Nusair interpolation
   ROPT   =    0.00000
 Ionic relaxation
   EDIFFG = 0.1E-04   stopping-criterion for IOM
   NSW    =      0    number of steps for IOM
   NBLOCK =      1;   KBLOCK =      1    inner block; outer block 
   IBRION =     -1    ionic relax: 0-MD 1-quasi-New 2-CG
   NFREE  =      0    steps in history (QN), initial steepest desc. (CG)
   ISIF   =      2    stress and relaxation
   IWAVPR =     10    prediction:  0-non 1-charg 2-wave 3-comb
   ISYM   =      2    0-nonsym 1-usesym 2-fastsym
   LCORR  =      T    Harris-Foulkes like correction to forces

   POTIM  = 0.5000    time-step for ionic-motion
   TEIN   =    0.0    initial temperature
   TEBEG  =    0.0;   TEEND  =   0.0 temperature during run
   SMASS  =  -3.00    Nose mass-parameter (am)
   estimated Nose-frequenzy (Omega)   =  0.10E-29 period in steps =****** mass=  -0.154E-27a.u.
   SCALEE = 1.0000    scale energy and forces
   NPACO  =    256;   APACO  = 16.0  distance and # of slots for P.C.
   PSTRESS=    0.0 pullay stress

  Mass of Ions in am
   POMASS =  55.85
  Ionic Valenz
   ZVAL   =   8.00
  Atomic Wigner-Seitz radii
   RWIGS  =  -1.00
  virtual crystal weights 
   VCA    =   1.00
   NELECT =       8.0000    total number of electrons
   NUPDOWN=      -1.0000    fix difference up-down

 DOS related values:
   EMIN   =  10.00;   EMAX   =-10.00  energy-range for DOS
   EFERMI =   0.00
   ISMEAR =    -5;   SIGMA  =   0.20  broadening in eV -4-tet -1-fermi 0-gaus

 Electronic relaxation 2 (details)
   IALGO  =     38    algorithm
   LDIAG  =      T    sub-space diagonalisation (order eigenvalues)
   LSUBROT=      F    optimize rotation matrix (better conditioning)
   TURBO    =      0    0=normal 1=particle mesh
   IRESTART =      0    0=no restart 2=restart with 2 vectors
   NREBOOT  =      0    no. of reboots
   NMIN     =      0    reboot dimension
   EREF     =   0.00    reference energy to select bands
   IMIX   =      4    mixing-type and parameters
     AMIX     =   0.40;   BMIX     =  1.00
     AMIX_MAG =   1.60;   BMIX_MAG =  1.00
     AMIN     =   0.10
     WC   =   100.;   INIMIX=   1;  MIXPRE=   1;  MAXMIX= -45

 Intra band minimization:
   WEIMIN = 0.0000     energy-eigenvalue tresh-hold
   EBREAK =  0.21E-07  absolut break condition
   DEPER  =   0.30     relativ break condition  

   TIME   =   0.40     timestep for ELM

  volume/ion in A,a.u.               =      13.50        91.10
  Fermi-wavevector in a.u.,A,eV,Ry     =   1.375077  2.598518 25.726382  1.890836
  Thomas-Fermi vector in A             =   2.500445
 
 Write flags
   LWAVE  =      T    write WAVECAR
   LCHARG =      T    write CHGCAR
   LVTOT  =      F    write LOCPOT, total local potential
   LVHAR  =      F    write LOCPOT, Hartree potential only
   LELF   =      F    write electronic localiz. function (ELF)
   LORBIT =     11    0 simple, 1 ext, 2 COOP (PROOUT)


 Dipole corrections
   LMONO  =      F    monopole corrections only (constant potential shift)
   LDIPOL =      F    correct potential (dipole corrections)
   IDIPOL =      0    1-x, 2-y, 3-z, 4-all directions 
   EPSILON=  1.0000000 bulk dielectric constant

 Exchange correlation treatment:
   GGA     =    --    GGA type
   LEXCH   =     2    internal setting for exchange type
   VOSKOWN=      0    Vosko Wilk Nusair interpolation
   LHFCALC =     F    Hartree Fock is set to
   LHFONE  =     F    Hartree Fock one center treatment
   AEXX    =    0.0000 exact exchange contribution

 Linear response parameters
   LEPSILON=     F    determine dielectric tensor
   LRPA    =     F    only Hartree local field effects (RPA)
   LNABLA  =     F    use nabla operator in PAW spheres
   LVEL    =     F    velocity operator in full k-point grid
   LINTERFAST=   F  fast interpolation
   KINTER  =     0    interpolate to denser k-point grid
   CSHIFT  =0.1000    complex shift for real part using Kramers Kronig
   OMEGAMAX=  -1.0    maximum frequency
   DEG_THRESHOLD= 0.2000000E-02 threshold for treating states as degnerate
   RTIME   =    0.100 relaxation time in fs

 Orbital magnetization related:
   ORBITALMAG=     F  switch on orbital magnetization
   LCHIMAG   =     F  perturbation theory with respect to B field
   DQ        =  0.001000  dq finite difference perturbation B field



--------------------------------------------------------------------------------------------------------


 Static calculation
 charge density and potential will be updated during run
 spin polarized calculation
 Variant of blocked Davidson
 Davidson routine will perform the subspace rotation
 perform sub-space diagonalisation
    after iterative eigenvector-optimisation
 modified Broyden-mixing scheme, WC =      100.0
 initial mixing is a Kerker type mixing with AMIX =  0.4000 and BMIX =      1.0000
 Hartree-type preconditioning will be used
 using additional bands            8
 reciprocal scheme for non local part
 use partial core corrections
 calculate Harris-corrections to forces 
   (improved forces if not selfconsistent)
 use of overlap-Matrix (Vanderbilt PP)
 Fermi weights with tetrahedron method with Bloechl corrections


--------------------------------------------------------------------------------------------------------


  energy-cutoff  :      400.00
  volume of cell :       13.50
      direct lattice vectors                 reciprocal lattice vectors
    -1.500000000  1.500000000  1.500000000     0.000000000  0.333333333  0.333333333
     1.500000000 -1.500000000  1.500000000     0.333333333  0.000000000  0.333333333
     1.500000000  1.500000000 -1.500000000     0.333333333  0.333333333  0.000000000

  length of vectors
     2.598076211  2.598076211  2.598076211     0.471404521  0.471404521  0.471404521


 
 k-points in units of 2pi/SCALE and weight: K-Points                                
   0.12500000  0.12500000  0.12500000       0.016
   0.12500000  0.25000000  0.25000000       0.047
   0.12500000  0.37500000  0.37500000       0.047
   0.12500000  0.50000000  0.50000000       0.023
   0.12500000  0.00000000  0.00000000       0.012
   0.25000000  0.25000000  0.37500000       0.047
   0.25000000  0.37500000  0.50000000       0.094
   0.25000000 -0.12500000  0.00000000       0.047
   0.37500000  0.37500000  0.62500000       0.016
   0.37500000 -0.25000000  0.00000000       0.047
   0.37500000 -0.12500000  0.12500000       0.047
   0.50000000 -0.37500000  0.00000000       0.047
   0.50000000 -0.25000000  0.12500000       0.094
  -0.37500000 -0.37500000 -0.87500000       0.047
  -0.37500000 -0.25000000 -0.75000000       0.047
   0.37500000  0.37500000  0.37500000       0.016
   0.37500000  0.50000000  0.50000000       0.023
   0.37500000  0.00000000  0.00000000       0.012
   0.50000000 -0.12500000  0.00000000       0.047
   0.62500000 -0.25000000  0.00000000       0.047
   0.62500000 -0.12500000  0.12500000       0.047
  -0.25000000 -0.25000000 -0.87500000       0.047
   0.62500000  0.00000000  0.00000000       0.012
   0.75000000 -0.12500000  0.00000000       0.047
  -0.12500000 -0.12500000 -0.87500000       0.016
   0.87500000  0.00000000  0.00000000       0.012
 
 k-points in reciprocal lattice and weights: K-Points                                
   0.06250000  0.06250000  0.06250000       0.016
   0.18750000  0.06250000  0.06250000       0.047
   0.31250000  0.06250000  0.06250000       0.047
   0.43750000  0.06250000  0.06250000       0.023
  -0.06250000  0.06250000  0.06250000       0.012
   0.18750000  0.18750000  0.06250000       0.047
   0.31250000  0.18750000  0.06250000       0.094
  -0.18750000  0.18750000  0.06250000       0.047
   0.31250000  0.31250000  0.06250000       0.016
  -0.31250000  0.31250000  0.06250000       0.047
  -0.18750000  0.31250000  0.06250000       0.047
  -0.43750000  0.43750000  0.06250000       0.047
  -0.31250000  0.43750000  0.06250000       0.094
  -0.43750000 -0.43750000  0.06250000       0.047
  -0.31250000 -0.43750000  0.06250000       0.047
   0.18750000  0.18750000  0.18750000       0.016
   0.31250000  0.18750000  0.18750000       0.023
  -0.18750000  0.18750000  0.18750000       0.012
  -0.31250000  0.31250000  0.18750000       0.047
  -0.43750000  0.43750000  0.18750000       0.047
  -0.31250000  0.43750000  0.18750000       0.047
  -0.43750000 -0.43750000  0.18750000       0.047
  -0.31250000  0.31250000  0.31250000       0.012
  -0.43750000  0.43750000  0.31250000       0.047
  -0.43750000 -0.43750000  0.31250000       0.016
  -0.43750000  0.43750000  0.43750000       0.012
 
 position of ions in fractional coordinates (direct lattice) 
   0.00000000  0.00000000  0.00000000
 
 position of ions in cartesian coordinates  (Angst):
   0.00000000  0.00000000  0.00000000
 


--------------------------------------------------------------------------------------------------------


 k-point  1 :   0.0625 0.0625 0.0625  plane waves:     231
 k-point  2 :   0.1875 0.0625 0.0625  plane waves:     249
 k-point  3 :   0.3125 0.0625 0.0625  plane waves:     251
 k-point  4 :   0.4375 0.0625 0.0625  plane waves:     250
 k-point  5 :  -0.0625 0.0625 0.0625  plane waves:     237
 k-point  6 :   0.1875 0.1875 0.0625  plane waves:     248
 k-point  7 :   0.3125 0.1875 0.0625  plane waves:     246
 k-point  8 :  -0.1875 0.1875 0.0625  plane waves:     241
 k-point  9 :   0.3125 0.3125 0.0625  plane waves:     246
 k-point 10 :  -0.3125 0.3125 0.0625  plane waves:     249
 k-point 11 :  -0.1875 0.3125 0.0625  plane waves:     244
 k-point 12 :  -0.4375 0.4375 0.0625  plane waves:     251
 k-point 13 :  -0.3125 0.4375 0.0625  plane waves:     245
 k-point 14 :  -0.4375-0.4375 0.0625  plane waves:     241
 k-point 15 :  -0.3125-0.4375 0.0625  plane waves:     245
 k-point 16 :   0.1875 0.1875 0.1875  plane waves:     246
 k-point 17 :   0.3125 0.1875 0.1875  plane waves:     248
 k-point 18 :  -0.1875 0.1875 0.1875  plane waves:     249
 k-point 19 :  -0.3125 0.3125 0.1875  plane waves:     242
 k-point 20 :  -0.4375 0.4375 0.1875  plane waves:     245
 k-point 21 :  -0.3125 0.4375 0.1875  plane waves:     250
 k-point 22 :  -0.4375-0.4375 0.1875  plane waves:     246
 k-point 23 :  -0.3125 0.3125 0.3125  plane waves:     241
 k-point 24 :  -0.4375 0.4375 0.3125  plane waves:     245
 k-point 25 :  -0.4375-0.4375 0.3125  plane waves:     245
 k-point 26 :  -0.4375 0.4375 0.4375  plane waves:     237

 maximum and minimum number of plane-waves per node :       251      231

 maximum number of plane-waves:       251
 maximum index in each direction: 
   IXMAX=    4   IYMAX=    4   IZMAX=    4
   IXMIN=   -4   IYMIN=   -4   IZMIN=   -4

 NGX is ok and might be reduce to  18
 NGY is ok and might be reduce to  18
 NGZ is ok and might be reduce to  18

 serial   3D FFT for wavefunctions
 parallel 3D FFT for charge:
    minimum data exchange during FFTs selected (reduces bandwidth)


 total amount of memory used by VASP on root node    33448. kBytes
========================================================================

   base      :      30000. kBytes
   nonl-proj :        947. kBytes
   fftplans  :        439. kBytes
   grid      :       1353. kBytes
   one-center:         31. kBytes
   wavefun   :        678. kBytes
 
     INWAV:  cpu time    0.0000: real time    0.0000
 Broyden mixing: mesh for mixing (old mesh)
   NGX =  9   NGY =  9   NGZ =  9
  (NGX  = 36   NGY  = 36   NGZ  = 36)
  gives a total of    729 points

 initial charge density was supplied:
 charge density of overlapping atoms calculated
 number of electron       8.0000000 magnetization       4.0000000
 keeping initial charge density in first step


--------------------------------------------------------------------------------------------------------


 Maximum index for augmentation-charges         3777 (set IRDMAX)


--------------------------------------------------------------------------------------------------------


 First call to EWALD:  gamma=   0.744
 Maximum number of real-space cells 3x 3x 3
 Maximum number of reciprocal cells 3x 3x 3

 FEWALD executed in parallel
    FEWALD:  cpu time    0.0020: real time    0.0011


----------------------------------------- Iteration    1(   1)  ---------------------------------------


    POTLOK:  cpu time    0.0070: real time    0.0042
    SETDIJ:  cpu time    0.0160: real time    0.0084
     EDDAV:  cpu time    0.8789: real time    0.4785
 BZINTS: Fermi energy: 12.018200;  8.000000 electrons
         Band energy:  56.430572;  BLOECHL correction: -0.513618
       DOS:  cpu time    0.1010: real time    0.0502
    --------------------------------------------
      LOOP:  cpu time    1.0138: real time    0.5469

 eigenvalue-minimisations  :  1364
 total energy-change (2. order) : 0.1656721E+02  (-0.3539620E+03)
 number of electron       8.0000000 magnetization       4.0000000
 augmentation part        8.0000000 magnetization       4.0000000

 Free energy of the ion-electron system (eV)
  ---------------------------------------------------
  alpha Z        PSCENC =        49.61217481
  Ewald energy   TEWEN  =      -558.97799591
  -Hartree energ DENC   =      -124.49146800
  -exchange      EXHF   =         0.00000000
  -V(xc)+E(xc)   XCENC  =         6.07484156
  PAW double counting   =       552.76102510     -562.19386350
  entropy T*S    EENTRO =         0.00000000
  eigenvalues    EBANDS =        56.43057152
  atomic energy  EATOM  =       597.35192723
  Solvation  Ediel_sol  =         0.00000000
  ---------------------------------------------------
  free energy    TOTEN  =        16.56721281 eV

  energy without entropy =       16.56721281  energy(sigma->0) =       16.56721281


--------------------------------------------------------------------------------------------------------




----------------------------------------- Iteration    1(   2)  ---------------------------------------


     EDDAV:  cpu time    0.7849: real time    0.3910
 BZINTS: Fermi energy:  6.350887;  8.000000 electrons
         Band energy:  30.919217;  BLOECHL correction: -0.060598
       DOS:  cpu time    0.1010: real time    0.0505
    --------------------------------------------
      LOOP:  cpu time    0.9019: real time    0.4519

 eigenvalue-minimisations  :  1304
 total energy-change (2. order) :-0.2551135E+02  (-0.2341658E+02)
 number of electron       8.0000000 magnetization       4.0000000
 augmentation part        8.0000000 magnetization       4.0000000

 Free energy of the ion-electron system (eV)
  ---------------------------------------------------
  alpha Z        PSCENC =        49.61217481
  Ewald energy   TEWEN  =      -558.97799591
  -Hartree energ DENC   =      -124.49146800
  -exchange      EXHF   =         0.00000000
  -V(xc)+E(xc)   XCENC  =         6.07484156
  PAW double counting   =       552.76102510     -562.19386350
  entropy T*S    EENTRO =         0.00000000
  eigenvalues    EBANDS =        30.91921668
  atomic energy  EATOM  =       597.35192723
  Solvation  Ediel_sol  =         0.00000000
  ---------------------------------------------------
  free energy    TOTEN  =        -8.94414203 eV

  energy without entropy =       -8.94414203  energy(sigma->0) =       -8.94414203


--------------------------------------------------------------------------------------------------------




----------------------------------------- Iteration    1(   3)  ---------------------------------------


     EDDAV:  cpu time    0.8649: real time    0.4314
 BZINTS: Fermi energy:  6.238752;  8.000000 electrons
         Band energy:  30.261493;  BLOECHL correction: -0.058990
       DOS:  cpu time    0.1000: real time    0.0492
    --------------------------------------------
      LOOP:  cpu time    0.9809: real time    0.4905

 eigenvalue-minimisations  :  1456
 total energy-change (2. order) :-0.6577237E+00  (-0.6574599E+00)
 number of electron       8.0000000 magnetization       4.0000000
 augmentation part        8.0000000 magnetization       4.0000000

 Free energy of the ion-electron system (eV)
  ---------------------------------------------------
  alpha Z        PSCENC =        49.61217481
  Ewald energy   TEWEN  =      -558.97799591
  -Hartree energ DENC   =      -124.49146800
  -exchange      EXHF   =         0.00000000
  -V(xc)+E(xc)   XCENC  =         6.07484156
  PAW double counting   =       552.76102510     -562.19386350
  entropy T*S    EENTRO =         0.00000000
  eigenvalues    EBANDS =        30.26149301
  atomic energy  EATOM  =       597.35192723
  Solvation  Ediel_sol  =         0.00000000
  ---------------------------------------------------
  free energy    TOTEN  =        -9.60186570 eV

  energy without entropy =       -9.60186570  energy(sigma->0) =       -9.60186570


--------------------------------------------------------------------------------------------------------




----------------------------------------- Iteration    1(   4)  ---------------------------------------


     EDDAV:  cpu time    0.8529: real time    0.4254
 BZINTS: Fermi energy:  6.238313;  8.000000 electrons
         Band energy:  30.258783;  BLOECHL correction: -0.058977
       DOS:  cpu time    0.0850: real time    0.0424
    --------------------------------------------
      LOOP:  cpu time    0.9519: real time    0.4771

 eigenvalue-minimisations  :  1432
 total energy-change (2. order) :-0.2709831E-02  (-0.2721078E-02)
 number of electron       8.0000000 magnetization       4.0000000
 augmentation part        8.0000000 magnetization       4.0000000

 Free energy of the ion-electron system (eV)
  ---------------------------------------------------
  alpha Z        PSCENC =        49.61217481
  Ewald energy   TEWEN  =      -558.97799591
  -Hartree energ DENC   =      -124.49146800
  -exchange      EXHF   =         0.00000000
  -V(xc)+E(xc)   XCENC  =         6.07484156
  PAW double counting   =       552.76102510     -562.19386350
  entropy T*S    EENTRO =         0.00000000
  eigenvalues    EBANDS =        30.25878318
  atomic energy  EATOM  =       597.35192723
  Solvation  Ediel_sol  =         0.00000000
  ---------------------------------------------------
  free energy    TOTEN  =        -9.60457553 eV

  energy without entropy =       -9.60457553  energy(sigma->0) =       -9.60457553


--------------------------------------------------------------------------------------------------------




----------------------------------------- Iteration    1(   5)  ---------------------------------------


     EDDAV:  cpu time    1.2358: real time    0.6169
 BZINTS: Fermi energy:  6.238309;  8.000000 electrons
         Band energy:  30.258761;  BLOECHL correction: -0.058977
       DOS:  cpu time    0.0960: real time    0.0474
    CHARGE:  cpu time    0.0520: real time    0.0274
    MIXING:  cpu time    0.0020: real time    0.0010
    --------------------------------------------
      LOOP:  cpu time    1.4008: real time    0.7018

 eigenvalue-minimisations  :  1424
 total energy-change (2. order) :-0.2227367E-04  (-0.2236998E-04)
 number of electron       8.0000010 magnetization       2.0299412
 augmentation part        3.6018505 magnetization       1.2722890

 Broyden mixing:
  rms(total) = 0.10670E+01    rms(broyden)= 0.10669E+01
  rms(prec ) = 0.33146E+01
  weight for this iteration     100.00

 Free energy of the ion-electron system (eV)
  ---------------------------------------------------
  alpha Z        PSCENC =        49.61217481
  Ewald energy   TEWEN  =      -558.97799591
  -Hartree energ DENC   =      -124.49146800
  -exchange      EXHF   =         0.00000000
  -V(xc)+E(xc)   XCENC  =         6.07484156
  PAW double counting   =       552.76102510     -562.19386350
  entropy T*S    EENTRO =         0.00000000
  eigenvalues    EBANDS =        30.25876090
  atomic energy  EATOM  =       597.35192723
  Solvation  Ediel_sol  =         0.00000000
  ---------------------------------------------------
  free energy    TOTEN  =        -9.60459780 eV

  energy without entropy =       -9.60459780  energy(sigma->0) =       -9.60459780


--------------------------------------------------------------------------------------------------------




----------------------------------------- Iteration    1(   6)  ---------------------------------------


    POTLOK:  cpu time    0.0100: real time    0.0042
    SETDIJ:  cpu time    0.0140: real time    0.0077
     EDDAV:  cpu time    0.8289: real time    0.4138
 BZINTS: Fermi energy:  3.192072;  8.000000 electrons
         Band energy:  12.293577;  BLOECHL correction: -0.059290
       DOS:  cpu time    0.0970: real time    0.0485
    CHARGE:  cpu time    0.0460: real time    0.0236
    MIXING:  cpu time    0.0020: real time    0.0010
    --------------------------------------------
      LOOP:  cpu time    1.0108: real time    0.5057

 eigenvalue-minimisations  :  1392
 total energy-change (2. order) : 0.6055734E+00  (-0.1344383E+01)
 number of electron       8.0000012 magnetization       2.4293737
 augmentation part        4.4144686 magnetization       1.9847557

 Broyden mixing:
  rms(total) = 0.77446E+00    rms(broyden)= 0.77440E+00
  rms(prec ) = 0.13267E+01
  weight for this iteration     100.00

 eigenvalues of (default mixing * dielectric matrix)
  average eigenvalue GAMMA=   0.5165
  0.5165

 Free energy of the ion-electron system (eV)
  ---------------------------------------------------
  alpha Z        PSCENC =        49.61217481
  Ewald energy   TEWEN  =      -558.97799591
  -Hartree energ DENC   =      -106.50909327
  -exchange      EXHF   =         0.00000000
  -V(xc)+E(xc)   XCENC  =         4.11888774
  PAW double counting   =       575.63482330     -582.52332492
  entropy T*S    EENTRO =         0.00000000
  eigenvalues    EBANDS =        12.29357661
  atomic energy  EATOM  =       597.35192723
  Solvation  Ediel_sol  =         0.00000000
  ---------------------------------------------------
  free energy    TOTEN  =        -8.99902441 eV

  energy without entropy =       -8.99902441  energy(sigma->0) =       -8.99902441


--------------------------------------------------------------------------------------------------------




----------------------------------------- Iteration    1(   7)  ---------------------------------------


    POTLOK:  cpu time    0.0100: real time    0.0042
    SETDIJ:  cpu time    0.0150: real time    0.0077
     EDDAV:  cpu time    0.8459: real time    0.4225
 BZINTS: Fermi energy:  4.080120;  8.000000 electrons
         Band energy:  18.257225;  BLOECHL correction: -0.055686
       DOS:  cpu time    0.1030: real time    0.0514
    CHARGE:  cpu time    0.0460: real time    0.0237
    MIXING:  cpu time    0.0030: real time    0.0011
    --------------------------------------------
      LOOP:  cpu time    1.0338: real time    0.5176

 eigenvalue-minimisations  :  1428
 total energy-change (2. order) : 0.1969887E+00  (-0.1559800E+00)
 number of electron       8.0000012 magnetization       2.4496618
 augmentation part        4.1350118 magnetization       1.9797036

 Broyden mixing:
  rms(total) = 0.36623E+00    rms(broyden)= 0.36623E+00
  rms(prec ) = 0.46260E+00
  weight for this iteration     100.00

 eigenvalues of (default mixing * dielectric matrix)
  average eigenvalue GAMMA=   0.6862
  0.8399  0.5324

 Free energy of the ion-electron system (eV)
  ---------------------------------------------------
  alpha Z        PSCENC =        49.61217481
  Ewald energy   TEWEN  =      -558.97799591
  -Hartree energ DENC   =      -110.87490817
  -exchange      EXHF   =         0.00000000
  -V(xc)+E(xc)   XCENC  =         4.66369357
  PAW double counting   =       605.97742804     -614.81158008
  entropy T*S    EENTRO =         0.00000000
  eigenvalues    EBANDS =        18.25722481
  atomic energy  EATOM  =       597.35192723
  Solvation  Ediel_sol  =         0.00000000
  ---------------------------------------------------
  free energy    TOTEN  =        -8.80203570 eV

  energy without entropy =       -8.80203570  energy(sigma->0) =       -8.80203570


--------------------------------------------------------------------------------------------------------




----------------------------------------- Iteration    1(   8)  ---------------------------------------


    POTLOK:  cpu time    0.0100: real time    0.0042
    SETDIJ:  cpu time    0.0140: real time    0.0078
     EDDAV:  cpu time    0.9489: real time    0.4737
 BZINTS: Fermi energy:  4.046889;  8.000000 electrons
         Band energy:  17.953785;  BLOECHL correction: -0.055627
       DOS:  cpu time    0.1150: real time    0.0601
    CHARGE:  cpu time    0.0550: real time    0.0269
    MIXING:  cpu time    0.0000: real time    0.0004
    --------------------------------------------
      LOOP:  cpu time    1.1538: real time    0.5803

 eigenvalue-minimisations  :  1632
 total energy-change (2. order) : 0.9402169E-02  (-0.6306795E-03)
 number of electron       8.0000012 magnetization       2.4653627
 augmentation part        4.1490739 magnetization       1.9887492

 Broyden mixing:
  rms(total) = 0.10920E+00    rms(broyden)= 0.10920E+00
  rms(prec ) = 0.20528E+00
  weight for this iteration     100.00

 eigenvalues of (default mixing * dielectric matrix)
  average eigenvalue GAMMA=   1.0285
  1.7718  0.7385  0.5753

 Free energy of the ion-electron system (eV)
  ---------------------------------------------------
  alpha Z        PSCENC =        49.61217481
  Ewald energy   TEWEN  =      -558.97799591
  -Hartree energ DENC   =      -110.09091574
  -exchange      EXHF   =         0.00000000
  -V(xc)+E(xc)   XCENC  =         4.62942794
  PAW double counting   =       620.88242053     -630.15345749
  entropy T*S    EENTRO =         0.00000000
  eigenvalues    EBANDS =        17.95378511
  atomic energy  EATOM  =       597.35192723
  Solvation  Ediel_sol  =         0.00000000
  ---------------------------------------------------
  free energy    TOTEN  =        -8.79263353 eV

  energy without entropy =       -8.79263353  energy(sigma->0) =       -8.79263353


--------------------------------------------------------------------------------------------------------




----------------------------------------- Iteration    1(   9)  ---------------------------------------


    POTLOK:  cpu time    0.0450: real time    0.0222
    SETDIJ:  cpu time    0.0370: real time    0.0194
     EDDAV:  cpu time    1.2568: real time    0.6260
 BZINTS: Fermi energy:  3.993604;  8.000000 electrons
         Band energy:  17.506053;  BLOECHL correction: -0.056162
       DOS:  cpu time    0.0890: real time    0.0422
    CHARGE:  cpu time    0.0490: real time    0.0249
    MIXING:  cpu time    0.0020: real time    0.0011
    --------------------------------------------
      LOOP:  cpu time    1.4868: real time    0.7425

 eigenvalue-minimisations  :  1896
 total energy-change (2. order) : 0.7234609E-02  (-0.8969934E-03)
 number of electron       8.0000012 magnetization       2.4448670
 augmentation part        4.1698524 magnetization       1.9657823

 Broyden mixing:
  rms(total) = 0.25343E-01    rms(broyden)= 0.25342E-01
  rms(prec ) = 0.31749E-01
  weight for this iteration     100.00

 eigenvalues of (default mixing * dielectric matrix)
  average eigenvalue GAMMA=   1.0882
  2.1749  0.8197  0.7645  0.5937

 Free energy of the ion-electron system (eV)
  ---------------------------------------------------
  alpha Z        PSCENC =        49.61217481
  Ewald energy   TEWEN  =      -558.97799591
  -Hartree energ DENC   =      -108.92583102
  -exchange      EXHF   =         0.00000000
  -V(xc)+E(xc)   XCENC  =         4.60053315
  PAW double counting   =       644.62103464     -654.57329532
  entropy T*S    EENTRO =         0.00000000
  eigenvalues    EBANDS =        17.50605349
  atomic energy  EATOM  =       597.35192723
  Solvation  Ediel_sol  =         0.00000000
  ---------------------------------------------------
  free energy    TOTEN  =        -8.78539892 eV

  energy without entropy =       -8.78539892  energy(sigma->0) =       -8.78539892


--------------------------------------------------------------------------------------------------------




----------------------------------------- Iteration    1(  10)  ---------------------------------------


    POTLOK:  cpu time    0.0100: real time    0.0042
    SETDIJ:  cpu time    0.0180: real time    0.0095
     EDDAV:  cpu time    0.8729: real time    0.4355
 BZINTS: Fermi energy:  3.998898;  8.000000 electrons
         Band energy:  17.582735;  BLOECHL correction: -0.056209
       DOS:  cpu time    0.0980: real time    0.0487
    CHARGE:  cpu time    0.0470: real time    0.0239
    MIXING:  cpu time    0.0020: real time    0.0012
    --------------------------------------------
      LOOP:  cpu time    1.0578: real time    0.5298

 eigenvalue-minimisations  :  1480
 total energy-change (2. order) : 0.3538140E-03  (-0.3376475E-04)
 number of electron       8.0000012 magnetization       2.4463908
 augmentation part        4.1665070 magnetization       1.9684376

 Broyden mixing:
  rms(total) = 0.42325E-02    rms(broyden)= 0.42322E-02
  rms(prec ) = 0.90397E-02
  weight for this iteration     100.00

 eigenvalues of (default mixing * dielectric matrix)
  average eigenvalue GAMMA=   1.1279
  2.3662  1.1632  0.6322  0.6322  0.8456

 Free energy of the ion-electron system (eV)
  ---------------------------------------------------
  alpha Z        PSCENC =        49.61217481
  Ewald energy   TEWEN  =      -558.97799591
  -Hartree energ DENC   =      -108.78227443
  -exchange      EXHF   =         0.00000000
  -V(xc)+E(xc)   XCENC  =         4.58286583
  PAW double counting   =       651.56430069     -661.71877853
  entropy T*S    EENTRO =         0.00000000
  eigenvalues    EBANDS =        17.58273519
  atomic energy  EATOM  =       597.35192723
  Solvation  Ediel_sol  =         0.00000000
  ---------------------------------------------------
  free energy    TOTEN  =        -8.78504511 eV

  energy without entropy =       -8.78504511  energy(sigma->0) =       -8.78504511


--------------------------------------------------------------------------------------------------------




----------------------------------------- Iteration    1(  11)  ---------------------------------------


    POTLOK:  cpu time    0.0100: real time    0.0042
    SETDIJ:  cpu time    0.0140: real time    0.0077
     EDDAV:  cpu time    0.9719: real time    0.4855
 BZINTS: Fermi energy:  3.995861;  8.000000 electrons
         Band energy:  17.571093;  BLOECHL correction: -0.056276
       DOS:  cpu time    0.1010: real time    0.0505
    CHARGE:  cpu time    0.0490: real time    0.0248
    MIXING:  cpu time    0.0020: real time    0.0012
    --------------------------------------------
      LOOP:  cpu time    1.1598: real time    0.5806

 eigenvalue-minimisations  :  1676
 total energy-change (2. order) :-0.3891882E-04  (-0.3901659E-05)
 number of electron       8.0000012 magnetization       2.4433003
 augmentation part        4.1671726 magnetization       1.9646787

 Broyden mixing:
  rms(total) = 0.47890E-02    rms(broyden)= 0.47889E-02
  rms(prec ) = 0.49574E-02
  weight for this iteration     100.00

 eigenvalues of (default mixing * dielectric matrix)
  average eigenvalue GAMMA=   1.1309
  2.2527  1.5428  0.9446  0.6394  0.6394  0.7666

 Free energy of the ion-electron system (eV)
  ---------------------------------------------------
  alpha Z        PSCENC =        49.61217481
  Ewald energy   TEWEN  =      -558.97799591
  -Hartree energ DENC   =      -108.73089041
  -exchange      EXHF   =         0.00000000
  -V(xc)+E(xc)   XCENC  =         4.58000889
  PAW double counting   =       653.42314397     -663.61454550
  entropy T*S    EENTRO =         0.00000000
  eigenvalues    EBANDS =        17.57109290
  atomic energy  EATOM  =       597.35192723
  Solvation  Ediel_sol  =         0.00000000
  ---------------------------------------------------
  free energy    TOTEN  =        -8.78508402 eV

  energy without entropy =       -8.78508402  energy(sigma->0) =       -8.78508402


--------------------------------------------------------------------------------------------------------




----------------------------------------- Iteration    1(  12)  ---------------------------------------


    POTLOK:  cpu time    0.0100: real time    0.0042
    SETDIJ:  cpu time    0.0150: real time    0.0077
     EDDAV:  cpu time    1.0818: real time    0.5402
 BZINTS: Fermi energy:  3.995716;  8.000000 electrons
         Band energy:  17.568024;  BLOECHL correction: -0.056288
       DOS:  cpu time    0.0900: real time    0.0442
    CHARGE:  cpu time    0.0520: real time    0.0270
    MIXING:  cpu time    0.0020: real time    0.0012
    --------------------------------------------
      LOOP:  cpu time    1.2608: real time    0.6312

 eigenvalue-minimisations  :  1100
 total energy-change (2. order) :-0.1096869E-04  (-0.1302193E-06)
 number of electron       8.0000012 magnetization       2.4454863
 augmentation part        4.1672666 magnetization       1.9668681

 Broyden mixing:
  rms(total) = 0.22789E-02    rms(broyden)= 0.22789E-02
  rms(prec ) = 0.24650E-02
  weight for this iteration     100.00

 eigenvalues of (default mixing * dielectric matrix)
  average eigenvalue GAMMA=   1.2295
  2.2336  2.2336  1.3496  0.8877  0.6447  0.6447  0.6129

 Free energy of the ion-electron system (eV)
  ---------------------------------------------------
  alpha Z        PSCENC =        49.61217481
  Ewald energy   TEWEN  =      -558.97799591
  -Hartree energ DENC   =      -108.74455194
  -exchange      EXHF   =         0.00000000
  -V(xc)+E(xc)   XCENC  =         4.57661602
  PAW double counting   =       653.46208059     -663.63337009
  entropy T*S    EENTRO =         0.00000000
  eigenvalues    EBANDS =        17.56802429
  atomic energy  EATOM  =       597.35192723
  Solvation  Ediel_sol  =         0.00000000
  ---------------------------------------------------
  free energy    TOTEN  =        -8.78509499 eV

  energy without entropy =       -8.78509499  energy(sigma->0) =       -8.78509499


--------------------------------------------------------------------------------------------------------




----------------------------------------- Iteration    1(  13)  ---------------------------------------


    POTLOK:  cpu time    0.0100: real time    0.0042
    SETDIJ:  cpu time    0.0140: real time    0.0077
     EDDAV:  cpu time    0.4919: real time    0.2443
 BZINTS: Fermi energy:  3.995052;  8.000000 electrons
         Band energy:  17.563130;  BLOECHL correction: -0.056284
       DOS:  cpu time    0.0980: real time    0.0487
    CHARGE:  cpu time    0.0470: real time    0.0240
    MIXING:  cpu time    0.0030: real time    0.0013
    --------------------------------------------
      LOOP:  cpu time    0.6769: real time    0.3386

 eigenvalue-minimisations  :   652
 total energy-change (2. order) : 0.1481133E-04  (-0.1540261E-06)
 number of electron       8.0000012 magnetization       2.4455389
 augmentation part        4.1674931 magnetization       1.9670385

 Broyden mixing:
  rms(total) = 0.88577E-03    rms(broyden)= 0.88577E-03
  rms(prec ) = 0.92926E-03
  weight for this iteration     100.00

 eigenvalues of (default mixing * dielectric matrix)
  average eigenvalue GAMMA=   1.2228
  2.5441  2.5441  1.1740  0.9207  0.6846  0.6846  0.6150  0.6150

 Free energy of the ion-electron system (eV)
  ---------------------------------------------------
  alpha Z        PSCENC =        49.61217481
  Ewald energy   TEWEN  =      -558.97799591
  -Hartree energ DENC   =      -108.74529364
  -exchange      EXHF   =         0.00000000
  -V(xc)+E(xc)   XCENC  =         4.58025436
  PAW double counting   =       653.47215022     -663.64142753
  entropy T*S    EENTRO =         0.00000000
  eigenvalues    EBANDS =        17.56313028
  atomic energy  EATOM  =       597.35192723
  Solvation  Ediel_sol  =         0.00000000
  ---------------------------------------------------
  free energy    TOTEN  =        -8.78508018 eV

  energy without entropy =       -8.78508018  energy(sigma->0) =       -8.78508018


--------------------------------------------------------------------------------------------------------




----------------------------------------- Iteration    1(  14)  ---------------------------------------


    POTLOK:  cpu time    0.0100: real time    0.0042
    SETDIJ:  cpu time    0.0140: real time    0.0077
     EDDAV:  cpu time    0.4979: real time    0.2478
 BZINTS: Fermi energy:  3.995307;  8.000000 electrons
         Band energy:  17.563983;  BLOECHL correction: -0.056286
       DOS:  cpu time    0.0980: real time    0.0481
    CHARGE:  cpu time    0.0480: real time    0.0253
    MIXING:  cpu time    0.0020: real time    0.0014
    --------------------------------------------
      LOOP:  cpu time    0.6809: real time    0.3413

 eigenvalue-minimisations  :   660
 total energy-change (2. order) :-0.2463725E-05  (-0.2307901E-07)
 number of electron       8.0000012 magnetization       2.4457105
 augmentation part        4.1674430 magnetization       1.9671118

 Broyden mixing:
  rms(total) = 0.18129E-03    rms(broyden)= 0.18129E-03
  rms(prec ) = 0.18554E-03
  weight for this iteration     100.00

 eigenvalues of (default mixing * dielectric matrix)
  average eigenvalue GAMMA=   1.1768
  2.5630  2.4703  1.2027  0.9682  0.8220  0.6976  0.6318  0.6318  0.6042

 Free energy of the ion-electron system (eV)
  ---------------------------------------------------
  alpha Z        PSCENC =        49.61217481
  Ewald energy   TEWEN  =      -558.97799591
  -Hartree energ DENC   =      -108.74218216
  -exchange      EXHF   =         0.00000000
  -V(xc)+E(xc)   XCENC  =         4.57958257
  PAW double counting   =       653.60099710     -663.77356929
  entropy T*S    EENTRO =         0.00000000
  eigenvalues    EBANDS =        17.56398300
  atomic energy  EATOM  =       597.35192723
  Solvation  Ediel_sol  =         0.00000000
  ---------------------------------------------------
  free energy    TOTEN  =        -8.78508265 eV

  energy without entropy =       -8.78508265  energy(sigma->0) =       -8.78508265


--------------------------------------------------------------------------------------------------------




----------------------------------------- Iteration    1(  15)  ---------------------------------------


    POTLOK:  cpu time    0.0110: real time    0.0042
    SETDIJ:  cpu time    0.0140: real time    0.0077
     EDDAV:  cpu time    0.4829: real time    0.2406
 BZINTS: Fermi energy:  3.995312;  8.000000 electrons
         Band energy:  17.563776;  BLOECHL correction: -0.056286
       DOS:  cpu time    0.1060: real time    0.0527
    --------------------------------------------
      LOOP:  cpu time    0.6229: real time    0.3111

 eigenvalue-minimisations  :   632
 total energy-change (2. order) : 0.2827192E-06  (-0.5682312E-09)
 number of electron       8.0000012 magnetization       2.4457105
 augmentation part        4.1674430 magnetization       1.9671118

 Free energy of the ion-electron system (eV)
  ---------------------------------------------------
  alpha Z        PSCENC =        49.61217481
  Ewald energy   TEWEN  =      -558.97799591
  -Hartree energ DENC   =      -108.74163429
  -exchange      EXHF   =         0.00000000
  -V(xc)+E(xc)   XCENC  =         4.57973679
  PAW double counting   =       653.61065473     -663.78372177
  entropy T*S    EENTRO =         0.00000000
  eigenvalues    EBANDS =        17.56377605
  atomic energy  EATOM  =       597.35192723
  Solvation  Ediel_sol  =         0.00000000
  ---------------------------------------------------
  free energy    TOTEN  =        -8.78508236 eV

  energy without entropy =       -8.78508236  energy(sigma->0) =       -8.78508236


--------------------------------------------------------------------------------------------------------




 average (electrostatic) potential at core
  the test charge radii are     1.0103
  (the norm of the test charge is              1.0000)
       1 -45.3141
 
 
 
 E-fermi :   3.9953     XC(G=0): -12.4657     alpha+bet :-11.4194


 spin component 1

 k-point     1 :       0.0625    0.0625    0.0625
  band No.  band energies     occupation 
      1      -2.6924      1.00000
      2       1.8622      1.00000
      3       1.8622      1.00000
      4       2.4899      1.00000
      5       3.0191      1.00000
      6       3.0191      1.00266
      7      23.4183      0.00000
      8      23.4183      0.00000
      9      25.8479      0.00000
     10      28.0169      0.00000
     11      31.5406      0.00000
     12      31.5406      0.00000

 k-point     2 :       0.1875    0.0625    0.0625
  band No.  band energies     occupation 
      1      -1.2430      1.00000
      2       1.5426      1.00000
      3       1.7149      1.00000
      4       2.9582      1.00000
      5       3.1099      1.00001
      6       3.2964      0.95784
      7      18.1072      0.00000
      8      21.1805      0.00000
      9      22.5062      0.00000
     10      28.0447      0.00000
     11      30.8777      0.00000
     12      32.3629      0.00000

 k-point     3 :       0.3125    0.0625    0.0625
  band No.  band energies     occupation 
      1      -0.0300      1.00000
      2       1.2651      1.00000
      3       2.3082      1.00000
      4       3.0552      1.00000
      5       3.1821      1.00879
      6       4.4616      0.07513
      7      12.9513      0.00000
      8      19.6432      0.00000
      9      20.4838      0.00000
     10      27.3325      0.00000
     11      30.2339      0.00000
     12      35.3690      0.00000

 k-point     4 :       0.4375    0.0625    0.0625
  band No.  band energies     occupation 
      1       0.1017      1.00000
      2       1.1581      1.00000
      3       3.1018      1.00000
      4       3.1450      1.00000
      5       3.2114      1.03557
      6       5.7667     -0.00802
      7       9.9907      0.00000
      8      19.0921      0.00000
      9      19.7287      0.00000
     10      27.0574      0.00000
     11      30.0992      0.00000
     12      35.7472      0.00000

 k-point     5 :      -0.0625    0.0625    0.0625
  band No.  band energies     occupation 
      1      -3.2384      1.00000
      2       2.0175      1.00000
      3       2.0175      1.00000
      4       2.0867      1.00000
      5       2.9645      1.00000
      6       3.1152      1.00000
      7      25.5245      0.00000
      8      26.6105      0.00000
      9      26.6105      0.00000
     10      28.7308      0.00000
     11      30.2716      0.00000
     12      30.2716      0.00000

 k-point     6 :       0.1875    0.1875    0.0625
  band No.  band energies     occupation 
      1       0.1614      1.00000
      2       1.3347      1.00000
      3       1.4612      1.00000
      4       3.0171      1.00000
      5       3.2026      1.00001
      6       4.6189      0.05491
      7      15.8882      0.00000
      8      16.3382      0.00000
      9      19.8754      0.00000
     10      29.7693      0.00000
     11      32.6121      0.00000
     12      34.7561      0.00000

 k-point     7 :       0.3125    0.1875    0.0625
  band No.  band energies     occupation 
      1       0.6086      1.00000
      2       1.1902      1.00000
      3       1.9804      1.00000
      4       3.1206      1.00000
      5       3.2721      1.00076
      6       6.7888     -0.00648
      7      11.4278      0.00000
      8      15.0050      0.00000
      9      18.7815      0.00000
     10      29.9467      0.00000
     11      33.8040      0.00000
     12      35.1801      0.00000

 k-point     8 :      -0.1875    0.1875    0.0625
  band No.  band energies     occupation 
      1      -2.1751      1.00000
      2       1.8109      1.00000
      3       1.9726      1.00000
      4       2.5751      1.00000
      5       2.7710      1.00000
      6       3.1872      1.00852
      7      20.8645      0.00000
      8      24.1882      0.00000
      9      24.5831      0.00000
     10      28.1663      0.00000
     11      28.2573      0.00000
     12      29.7715      0.00000

 k-point     9 :       0.3125    0.3125    0.0625
  band No.  band energies     occupation 
      1       0.8848      1.00000
      2       1.4780      1.00000
      3       1.4780      1.00000
      4       3.2289      1.00000
      5       3.2289      1.00000
      6       9.9855      0.00000
      7       9.9855      0.00000
      8      11.7892      0.00000
      9      18.3606      0.00000
     10      32.2063      0.00000
     11      32.2063      0.00000
     12      37.8394      0.00000

 k-point    10 :      -0.3125    0.3125    0.0625
  band No.  band energies     occupation 
      1      -0.6005      1.00000
      2       1.5005      1.00000
      3       2.0258      1.00000
      4       2.9021      1.00000
      5       3.3193      1.00107
      6       3.3742      0.83878
      7      15.3384      0.00000
      8      22.0159      0.00000
      9      22.3487      0.00000
     10      26.7233      0.00000
     11      28.2497      0.00000
     12      31.1239      0.00000

 k-point    11 :      -0.1875    0.3125    0.0625
  band No.  band energies     occupation 
      1      -0.8328      1.00000
      2       1.6759      1.00000
      3       1.8000      1.00000
      4       2.6559      1.00000
      5       3.1711      1.00001
      6       3.4598      0.86463
      7      18.2796      0.00000
      8      18.8670      0.00000
      9      25.0191      0.00000
     10      25.3043      0.00000
     11      28.5886      0.00000
     12      32.8601      0.00000

 k-point    12 :      -0.4375    0.4375    0.0625
  band No.  band energies     occupation 
      1      -0.0135      1.00000
      2       1.2886      1.00000
      3       2.6813      1.00000
      4       3.0342      1.00000
      5       4.0138      0.93928
      6       4.4986      0.01430
      7      10.8652      0.00000
      8      20.8002      0.00000
      9      20.8531      0.00000
     10      26.0798      0.00000
     11      28.3763      0.00000
     12      32.9549      0.00000

 k-point    13 :      -0.3125    0.4375    0.0625
  band No.  band energies     occupation 
      1       0.2766      1.00000
      2       1.4216      1.00000
      3       1.8718      1.00000
      4       2.8784      1.00000
      5       3.4799      1.00230
      6       4.8778     -0.02141
      7      13.3199      0.00000
      8      16.9363      0.00000
      9      23.0301      0.00000
     10      26.0189      0.00000
     11      29.2856      0.00000
     12      33.2239      0.00000

 k-point    14 :      -0.4375   -0.4375    0.0625
  band No.  band energies     occupation 
      1       0.3860      1.00000
      2       1.3992      1.00000
      3       2.0431      1.00000
      4       2.9587      1.00000
      5       3.7543      1.01227
      6       6.7397     -0.00320
      7      10.1148      0.00000
      8      16.3112      0.00000
      9      22.3070      0.00000
     10      26.2381      0.00000
     11      30.4972      0.00000
     12      32.5146      0.00000

 k-point    15 :      -0.3125   -0.4375    0.0625
  band No.  band energies     occupation 
      1       0.9348      1.00000
      2       1.2017      1.00000
      3       1.6151      1.00000
      4       3.1070      1.00000
      5       3.4590      1.00015
      6       7.7307     -0.00116
      7      11.7213      0.00000
      8      12.6044      0.00000
      9      23.2359      0.00000
     10      26.6219      0.00000
     11      28.5405      0.00000
     12      34.0306      0.00000

 k-point    16 :       0.1875    0.1875    0.1875
  band No.  band energies     occupation 
      1       1.1746      1.00000
      2       1.1746      1.00000
      3       1.2253      1.00000
      4       3.1901      1.00000
      5       3.1901      1.00000
      6       6.7251     -0.00788
      7      14.3875      0.00000
      8      14.3875      0.00000
      9      14.9646      0.00000
     10      34.2477      0.00000
     11      36.2525      0.00000
     12      36.2525      0.00000

 k-point    17 :       0.3125    0.1875    0.1875
  band No.  band energies     occupation 
      1       1.0646      1.00000
      2       1.1374      1.00000
      3       1.6537      1.00000
      4       3.2145      1.00000
      5       3.2303      1.00000
      6       9.3580      0.00000
      7      10.7953      0.00000
      8      13.8751      0.00000
      9      14.2472      0.00000
     10      35.0178      0.00000
     11      37.9518      0.00000
     12      37.9973      0.00000

 k-point    18 :      -0.1875    0.1875    0.1875
  band No.  band energies     occupation 
      1      -1.2200      1.00000
      2       2.1431      1.00000
      3       2.1431      1.00000
      4       2.1780      1.00000
      5       2.5893      1.00000
      6       3.4530      0.98007
      7      21.3474      0.00000
      8      21.5504      0.00000
      9      21.5504      0.00000
     10      23.3375      0.00000
     11      32.1424      0.00000
     12      32.1424      0.00000

 k-point    19 :      -0.3125    0.3125    0.1875
  band No.  band energies     occupation 
      1       0.0714      1.00000
      2       1.5607      1.00000
      3       2.0365      1.00000
      4       2.5738      1.00000
      5       3.2848      1.00030
      6       4.1184      0.23893
      7      16.1307      0.00000
      8      19.1415      0.00000
      9      20.6518      0.00000
     10      23.9995      0.00000
     11      31.1983      0.00000
     12      32.7311      0.00000

 k-point    20 :      -0.4375    0.4375    0.1875
  band No.  band energies     occupation 
      1       0.4823      1.00000
      2       1.4892      1.00000
      3       1.8813      1.00000
      4       2.7469      1.00000
      5       3.9507      0.99578
      6       6.3057     -0.01590
      7      11.3959      0.00000
      8      17.6942      0.00000
      9      19.8698      0.00000
     10      26.5077      0.00000
     11      30.3498      0.00000
     12      30.7152      0.00000

 k-point    21 :      -0.3125    0.4375    0.1875
  band No.  band energies     occupation 
      1       0.7191      1.00000
      2       1.0669      1.00000
      3       2.1067      1.00000
      4       2.8796      1.00000
      5       3.6194      1.00011
      6       6.1396     -0.02051
      7      14.2504      0.00000
      8      14.6064      0.00000
      9      21.9810      0.00000
     10      23.0340      0.00000
     11      29.9442      0.00000
     12      32.2390      0.00000

 k-point    22 :      -0.4375   -0.4375    0.1875
  band No.  band energies     occupation 
      1       0.7540      1.00000
      2       1.0581      1.00000
      3       1.9434      1.00000
      4       3.1231      1.00000
      5       3.8029      1.00049
      6       8.8988      0.00000
      7      10.6396      0.00000
      8      13.7902      0.00000
      9      21.9083      0.00000
     10      24.9379      0.00000
     11      27.2339      0.00000
     12      31.4036      0.00000

 k-point    23 :      -0.3125    0.3125    0.3125
  band No.  band energies     occupation 
      1       0.5424      1.00000
      2       1.0475      1.00000
      3       2.7582      1.00000
      4       2.7582      1.00000
      5       3.3145      1.00000
      6       5.5763     -0.02830
      7      16.5228      0.00000
      8      16.5228      0.00000
      9      19.0431      0.00000
     10      20.4082      0.00000
     11      30.7936      0.00000
     12      35.7755      0.00000

 k-point    24 :      -0.4375    0.4375    0.3125
  band No.  band energies     occupation 
      1       0.5508      1.00000
      2       0.6661      1.00000
      3       2.8687      1.00000
      4       3.0899      1.00000
      5       3.8635      1.00000
      6       8.3669      0.00000
      7      12.5776      0.00000
      8      14.9332      0.00000
      9      19.0256      0.00000
     10      21.5789      0.00000
     11      26.3177      0.00000
     12      35.2976      0.00000

 k-point    25 :      -0.4375   -0.4375    0.3125
  band No.  band energies     occupation 
      1       0.4538      1.00000
      2       0.4538      1.00000
      3       2.9510      1.00000
      4       3.7430      1.00000
      5       3.7430      1.00000
      6      11.4701      0.00000
      7      11.4701      0.00000
      8      12.2922      0.00000
      9      20.4643      0.00000
     10      20.4643      0.00000
     11      23.6651      0.00000
     12      35.7644      0.00000

 k-point    26 :      -0.4375    0.4375    0.4375
  band No.  band energies     occupation 
      1       0.2458      1.00000
      2       0.2541      1.00000
      3       3.7110      1.00000
      4       3.7110      1.00000
      5       3.8362      1.00000
      6      10.9054      0.00000
      7      13.1926      0.00000
      8      13.1926      0.00000
      9      18.1307      0.00000
     10      19.0809      0.00000
     11      22.3020      0.00000
     12      39.0125      0.00000

 spin component 2

 k-point     1 :       0.0625    0.0625    0.0625
  band No.  band energies     occupation 
      1      -2.3375      1.00000
      2       3.8791      1.00475
      3       3.8791      1.04366
      4       4.5961      0.00000
      5       5.4592      0.00000
      6       5.4592      0.00000
      7      23.9037      0.00000
      8      23.9037      0.00000
      9      26.6994      0.00000
     10      28.1015      0.00000
     11      32.0785      0.00000
     12      32.0785      0.00000

 k-point     2 :       0.1875    0.0625    0.0625
  band No.  band energies     occupation 
      1      -0.8177      1.00000
      2       3.4860      1.00342
      3       3.6072      1.01453
      4       5.3550      0.00000
      5       5.4512      0.00000
      6       5.5786      0.00000
      7      18.8821      0.00000
      8      21.7328      0.00000
      9      23.2722      0.00000
     10      28.3453      0.00000
     11      31.5604      0.00000
     12      32.8155      0.00000

 k-point     3 :       0.3125    0.0625    0.0625
  band No.  band energies     occupation 
      1       0.9413      1.00000
      2       3.1463      1.00000
      3       3.6605      1.01071
      4       5.4440      0.00000
      5       5.6812      0.00000
      6       6.5017      0.00000
      7      13.9893      0.00000
      8      20.1741      0.00000
      9      21.1863      0.00000
     10      27.8274      0.00000
     11      30.9312      0.00000
     12      35.8224      0.00000

 k-point     4 :       0.4375    0.0625    0.0625
  band No.  band energies     occupation 
      1       1.4947      1.00000
      2       3.0159      1.00000
      3       4.3222      0.35629
      4       5.4967      0.00000
      5       5.7249      0.00000
      6       7.2604      0.00000
      7      11.3885      0.00000
      8      19.6036      0.00000
      9      20.3905      0.00000
     10      27.6094      0.00000
     11      30.8207      0.00000
     12      36.0043      0.00000

 k-point     5 :      -0.0625    0.0625    0.0625
  band No.  band energies     occupation 
      1      -2.8900      1.00000
      2       4.0693      0.46127
      3       4.0693      0.16334
      4       4.1570      0.00000
      5       5.3918      0.00000
      6       5.5849      0.00000
      7      25.7647      0.00000
      8      26.9053      0.00000
      9      26.9053      0.00000
     10      29.2917      0.00000
     11      31.0063      0.00000
     12      31.0063      0.00000

 k-point     6 :       0.1875    0.1875    0.0625
  band No.  band energies     occupation 
      1       0.8489      1.00000
      2       3.1487      1.00000
      3       3.2455      1.00326
      4       5.4245      0.00000
      5       5.6837      0.00000
      6       6.6504      0.00000
      7      16.7528      0.00000
      8      17.1013      0.00000
      9      20.5485      0.00000
     10      30.0552      0.00000
     11      33.1526      0.00000
     12      35.2525      0.00000

 k-point     7 :       0.3125    0.1875    0.0625
  band No.  band energies     occupation 
      1       2.0078      1.00000
      2       2.9649      1.00000
      3       3.4000      1.01581
      4       5.5374      0.00000
      5       5.7442      0.00000
      6       8.3152      0.00000
      7      12.5318      0.00000
      8      15.7947      0.00000
      9      19.4432      0.00000
     10      30.3340      0.00000
     11      34.1965      0.00000
     12      35.7523      0.00000

 k-point     8 :      -0.1875    0.1875    0.0625
  band No.  band energies     occupation 
      1      -1.8064      1.00000
      2       3.8154      1.01193
      3       3.9657      0.90365
      4       4.7006      0.00000
      5       5.1279      0.00000
      6       5.6667      0.00000
      7      21.5267      0.00000
      8      24.5768      0.00000
      9      25.2561      0.00000
     10      28.7520      0.00000
     11      28.8748      0.00000
     12      30.2411      0.00000

 k-point     9 :       0.3125    0.3125    0.0625
  band No.  band energies     occupation 
      1       2.5601      1.00000
      2       3.0330      1.00000
      3       3.0330      1.00220
      4       5.6726      0.00000
      5       5.6726      0.00000
      6      11.1383      0.00000
      7      11.1383      0.00000
      8      12.7406      0.00000
      9      19.0492      0.00000
     10      32.5375      0.00000
     11      32.5375      0.00000
     12      38.6399      0.00000

 k-point    10 :      -0.3125    0.3125    0.0625
  band No.  band energies     occupation 
      1       0.0025      1.00000
      2       3.4392      1.00357
      3       3.7125      1.02091
      4       5.2062      0.00000
      5       5.6081      0.00000
      6       5.7566      0.00000
      7      16.2536      0.00000
      8      22.3826      0.00000
      9      23.0982      0.00000
     10      27.3912      0.00000
     11      28.8906      0.00000
     12      31.6039      0.00000

 k-point    11 :      -0.1875    0.3125    0.0625
  band No.  band energies     occupation 
      1      -0.3599      1.00000
      2       3.6172      1.00678
      3       3.7271      1.04876
      4       4.9360      0.00000
      5       5.3905      0.00000
      6       5.8456      0.00000
      7      19.0736      0.00000
      8      19.5915      0.00000
      9      25.5946      0.00000
     10      25.8094      0.00000
     11      29.1992      0.00000
     12      33.3181      0.00000

 k-point    12 :      -0.4375    0.4375    0.0625
  band No.  band energies     occupation 
      1       1.2716      1.00000
      2       3.1850      1.00000
      3       4.1635      0.44646
      4       5.3696      0.00000
      5       6.1032      0.00000
      6       6.3533      0.00000
      7      12.1328      0.00000
      8      21.1321      0.00000
      9      21.5368      0.00000
     10      26.8187      0.00000
     11      29.0926      0.00000
     12      33.3338      0.00000

 k-point    13 :      -0.3125    0.4375    0.0625
  band No.  band energies     occupation 
      1       1.3068      1.00000
      2       3.2448      1.00040
      3       3.5766      1.04136
      4       5.1546      0.00000
      5       5.8321      0.00000
      6       6.7738      0.00000
      7      14.3187      0.00000
      8      17.6942      0.00000
      9      23.5299      0.00000
     10      26.6261      0.00000
     11      29.8489      0.00000
     12      33.7984      0.00000

 k-point    14 :      -0.4375   -0.4375    0.0625
  band No.  band energies     occupation 
      1       1.8544      1.00000
      2       3.2725      1.00000
      3       3.5964      1.03524
      4       5.2633      0.00000
      5       6.0546      0.00000
      6       8.0366      0.00000
      7      11.4466      0.00000
      8      17.0512      0.00000
      9      22.7796      0.00000
     10      26.9261      0.00000
     11      30.8792      0.00000
     12      33.1740      0.00000

 k-point    15 :      -0.3125   -0.4375    0.0625
  band No.  band energies     occupation 
      1       2.4453      1.00000
      2       2.9016      1.00000
      3       3.3312      1.01614
      4       5.4000      0.00000
      5       5.7820      0.00000
      6       9.1013      0.00000
      7      12.8043      0.00000
      8      13.4976      0.00000
      9      23.8255      0.00000
     10      27.0978      0.00000
     11      29.0297      0.00000
     12      34.8713      0.00000

 k-point    16 :       0.1875    0.1875    0.1875
  band No.  band energies     occupation 
      1       2.2868      1.00000
      2       2.9010      1.00000
      3       2.9010      1.00269
      4       5.6805      0.00000
      5       5.6805      0.00000
      6       8.3645      0.00000
      7      15.2856      0.00000
      8      15.2856      0.00000
      9      15.6535      0.00000
     10      34.3395      0.00000
     11      36.6546      0.00000
     12      36.6546      0.00000

 k-point    17 :       0.3125    0.1875    0.1875
  band No.  band energies     occupation 
      1       2.6117      1.00000
      2       2.8316      1.00000
      3       3.1343      1.00378
      4       5.7068      0.00000
      5       5.7495      0.00000
      6      10.5333      0.00000
      7      11.9139      0.00000
      8      14.7830      0.00000
      9      14.9694      0.00000
     10      35.2412      0.00000
     11      38.2773      0.00000
     12      38.4734      0.00000

 k-point    18 :      -0.1875    0.1875    0.1875
  band No.  band energies     occupation 
      1      -0.8042      1.00000
      2       4.1543      0.77184
      3       4.1543      0.18931
      4       4.3867      0.00000
      5       4.7261      0.00000
      6       5.9015      0.00000
      7      21.9300      0.00000
      8      22.3254      0.00000
      9      22.3254      0.00000
     10      23.8518      0.00000
     11      32.5618      0.00000
     12      32.5618      0.00000

 k-point    19 :      -0.3125    0.3125    0.1875
  band No.  band energies     occupation 
      1       0.7999      1.00000
      2       3.5062      1.00392
      3       4.0220      0.55050
      4       4.6783      0.00000
      5       5.5050      0.00000
      6       6.2423      0.00000
      7      17.0026      0.00000
      8      19.9187      0.00000
      9      21.2716      0.00000
     10      24.5841      0.00000
     11      31.8152      0.00000
     12      33.2572      0.00000

 k-point    20 :      -0.4375    0.4375    0.1875
  band No.  band energies     occupation 
      1       1.9134      1.00000
      2       3.1478      1.00000
      3       3.8371      0.83168
      4       4.9205      0.00000
      5       6.2798      0.00000
      6       7.6673      0.00000
      7      12.5227      0.00000
      8      18.4138      0.00000
      9      20.5058      0.00000
     10      27.0353      0.00000
     11      31.0014      0.00000
     12      31.3755      0.00000

 k-point    21 :      -0.3125    0.4375    0.1875
  band No.  band energies     occupation 
      1       1.9810      1.00000
      2       2.9182      1.00040
      3       4.0697      0.45233
      4       5.0132      0.00000
      5       5.8892      0.00000
      6       7.6481      0.00000
      7      15.2012      0.00000
      8      15.4040      0.00000
      9      22.6559      0.00000
     10      23.6201      0.00000
     11      30.5723      0.00000
     12      32.9685      0.00000

 k-point    22 :      -0.4375   -0.4375    0.1875
  band No.  band energies     occupation 
      1       2.4352      1.00000
      2       2.7233      1.00000
      3       3.8471      0.69661
      4       5.2961      0.00000
      5       6.0933      0.00000
      6       9.9822      0.00000
      7      11.7566      0.00000
      8      14.6176      0.00000
      9      22.5563      0.00000
     10      25.4835      0.00000
     11      27.9574      0.00000
     12      32.1330      0.00000

 k-point    23 :      -0.3125    0.3125    0.3125
  band No.  band energies     occupation 
      1       1.7364      1.00000
      2       2.9783      1.00244
      3       4.8086     -0.15142
      4       4.8086      0.00000
      5       5.5532      0.00000
      6       7.1219      0.00000
      7      17.2683      0.00000
      8      17.2683      0.00000
      9      19.9512      0.00000
     10      21.0672      0.00000
     11      31.5206      0.00000
     12      36.3926      0.00000

 k-point    24 :      -0.4375    0.4375    0.3125
  band No.  band energies     occupation 
      1       2.1776      1.00000
      2       2.4433      1.00000
      3       4.9555     -0.12868
      4       5.1824      0.00000
      5       6.1789      0.00000
      6       9.4050      0.00000
      7      13.4310      0.00000
      8      15.5934      0.00000
      9      19.9228      0.00000
     10      22.2920      0.00000
     11      27.1141      0.00000
     12      35.8700      0.00000

 k-point    25 :      -0.4375   -0.4375    0.3125
  band No.  band energies     occupation 
      1       2.1905      1.00000
      2       2.1905      1.00000
      3       5.0163     -0.07451
      4       6.0107      0.00000
      5       6.0107      0.00000
      6      12.2813      0.00000
      7      12.2813      0.00000
      8      13.0155      0.00000
      9      21.2720      0.00000
     10      21.2720      0.00000
     11      24.5284      0.00000
     12      36.3211      0.00000

 k-point    26 :      -0.4375    0.4375    0.4375
  band No.  band energies     occupation 
      1       1.9610      1.00000
      2       2.0174      1.00000
      3       5.9686     -0.00112
      4       5.9686      0.00000
      5       6.1523      0.00000
      6      11.5809      0.00000
      7      13.7136      0.00000
      8      13.7136      0.00000
      9      19.2275      0.00000
     10      20.0257      0.00000
     11      23.1835      0.00000
     12      39.4632      0.00000


--------------------------------------------------------------------------------------------------------


 soft charge-density along one line, spin component           1
         0         1         2         3         4         5         6         7         8         9
 total charge-density along one line
 
 soft charge-density along one line, spin component           2
         0         1         2         3         4         5         6         7         8         9
 total charge-density along one line
 
 pseudopotential strength for first ion, spin component:           1
 -6.636  -0.000   0.000  -0.000  -0.000  -7.134  -0.000   0.000
 -0.000  -6.636  -0.000  -0.000   0.000  -0.000  -7.134  -0.000
  0.000  -0.000  -6.739  -0.000  -0.000   0.000  -0.000  -7.234
 -0.000  -0.000  -0.000  -6.636  -0.000  -0.000  -0.000  -0.000
 -0.000   0.000  -0.000  -0.000  -6.739  -0.000   0.000  -0.000
 -7.134  -0.000   0.000  -0.000  -0.000  -7.590  -0.000   0.000
 -0.000  -7.134  -0.000  -0.000   0.000  -0.000  -7.590  -0.000
  0.000  -0.000  -7.234  -0.000  -0.000   0.000  -0.000  -7.687
 -0.000  -0.000  -0.000  -7.134  -0.000  -0.000  -0.000  -0.000
 -0.000   0.000  -0.000  -0.000  -7.234  -0.000   0.000  -0.000
  0.000   0.000  -0.000   0.000   0.000   0.000   0.000  -0.000
  0.000   0.000  -0.000   0.000   0.000   0.000   0.000  -0.000
 -0.000  -0.000  -0.000   0.000  -0.000  -0.000  -0.000  -0.000
  0.000   0.000  -0.000  -0.000  -0.000   0.000   0.000  -0.000
  0.000   0.000   0.000  -0.000  -0.000   0.000   0.000   0.000
 -0.000  -0.000  -0.000   0.000  -0.000  -0.000  -0.000  -0.000
  0.000   0.000  -0.000  -0.000  -0.000   0.000   0.000  -0.000
  0.000   0.000   0.000  -0.000  -0.000   0.000   0.000   0.000
 pseudopotential strength for first ion, spin component:           2
 -5.093  -0.000   0.000  -0.000  -0.000  -5.643  -0.000   0.000
 -0.000  -5.093  -0.000  -0.000   0.000  -0.000  -5.643  -0.000
  0.000  -0.000  -5.019  -0.000  -0.000   0.000  -0.000  -5.571
 -0.000  -0.000  -0.000  -5.093  -0.000  -0.000  -0.000  -0.000
 -0.000   0.000  -0.000  -0.000  -5.019  -0.000   0.000  -0.000
 -5.643  -0.000   0.000  -0.000  -0.000  -6.149  -0.000   0.000
 -0.000  -5.643  -0.000  -0.000   0.000  -0.000  -6.149  -0.000
  0.000  -0.000  -5.571  -0.000  -0.000   0.000  -0.000  -6.080
 -0.000  -0.000  -0.000  -5.643  -0.000  -0.000  -0.000  -0.000
 -0.000   0.000  -0.000  -0.000  -5.571  -0.000   0.000  -0.000
  0.000   0.000   0.000   0.000   0.000   0.000   0.000   0.000
  0.000   0.000   0.000   0.000   0.000   0.000   0.000   0.000
 -0.000  -0.000  -0.000   0.000  -0.000  -0.000  -0.000  -0.000
  0.000   0.000  -0.000  -0.000  -0.000   0.000   0.000  -0.000
  0.000   0.000   0.000  -0.000  -0.000   0.000   0.000   0.000
 -0.000  -0.000  -0.000   0.000  -0.000  -0.000  -0.000  -0.000
  0.000   0.000  -0.000  -0.000  -0.000   0.000   0.000  -0.000
  0.000   0.000   0.000  -0.000  -0.000   0.000   0.000   0.000
 total augmentation occupancy for first ion, spin component:           1
  2.413  -0.000   0.000   0.000   0.000  -1.137   0.000   0.000   0.000   0.000  -0.000   0.000   0.000   0.000   0.000   0.000
  0.000   2.413   0.000   0.000   0.000   0.000  -1.137  -0.000   0.000   0.000   0.000   0.000   0.000   0.000   0.000   0.000
  0.000  -0.000   3.061  -0.000   0.000  -0.000   0.000  -1.676   0.000   0.000  -0.000   0.000   0.000   0.000   0.000   0.000
  0.000  -0.000  -0.000   2.413  -0.000   0.000  -0.000   0.000  -1.137   0.000   0.000   0.000   0.000   0.000   0.000   0.000
  0.000   0.000   0.000   0.000   3.061   0.000  -0.000   0.000   0.000  -1.676   0.000   0.000   0.000   0.000   0.000   0.000
 -1.137   0.000  -0.000   0.000  -0.000   1.252  -0.000  -0.000  -0.000  -0.000   0.000  -0.000   0.000   0.000   0.000   0.000
  0.000  -1.137  -0.000  -0.000  -0.000  -0.000   1.252  -0.000   0.000  -0.000   0.000  -0.000   0.000   0.000   0.000   0.000
  0.000  -0.000  -1.676  -0.000   0.000  -0.000   0.000   1.548   0.000   0.000  -0.000  -0.000   0.000   0.000   0.000   0.000
  0.000   0.000   0.000  -1.137   0.000  -0.000   0.000  -0.000   1.252   0.000   0.000   0.000   0.000   0.000   0.000   0.000
 -0.000  -0.000   0.000   0.000  -1.676   0.000  -0.000   0.000   0.000   1.548  -0.000   0.000   0.000   0.000   0.000   0.000
  0.000   0.000  -0.000  -0.000   0.000   0.000   0.000   0.000   0.000  -0.000   1.956  -0.205   0.000   0.000   0.000   0.000
  0.000   0.000   0.000  -0.000   0.000  -0.000  -0.000   0.000   0.000  -0.000  -0.205   0.026   0.000   0.000   0.000   0.000
  0.000   0.000   0.000   0.000   0.000   0.000   0.000   0.000   0.000   0.000   0.000   0.000   0.214   0.000   0.000  -0.018
  0.000   0.000   0.000   0.000   0.000   0.000   0.000   0.000   0.000   0.000   0.000   0.000   0.000   0.214   0.000   0.000
  0.000   0.000   0.000   0.000   0.000   0.000   0.000   0.000   0.000   0.000   0.000   0.000  -0.000  -0.000   0.214   0.000
  0.000   0.000   0.000   0.000   0.000   0.000   0.000   0.000   0.000   0.000   0.000   0.000  -0.018   0.000   0.000   0.002
  0.000   0.000   0.000   0.000   0.000   0.000   0.000   0.000   0.000   0.000   0.000   0.000   0.000  -0.018  -0.000   0.000
  0.000   0.000   0.000   0.000   0.000   0.000   0.000   0.000   0.000   0.000   0.000   0.000   0.000  -0.000  -0.018   0.000
 total augmentation occupancy for first ion, spin component:           2
  2.184   0.000   0.000   0.000   0.000  -0.946  -0.000   0.000   0.000   0.000   0.000   0.000   0.000   0.000   0.000   0.000
 -0.000   2.184  -0.000   0.000   0.000  -0.000  -0.946  -0.000   0.000   0.000  -0.000  -0.000   0.000   0.000   0.000   0.000
  0.000  -0.000   2.823   0.000   0.000   0.000   0.000  -1.225   0.000   0.000   0.000   0.000   0.000   0.000   0.000   0.000
  0.000   0.000   0.000   2.184  -0.000   0.000   0.000   0.000  -0.946   0.000   0.000  -0.000   0.000   0.000   0.000   0.000
  0.000  -0.000   0.000   0.000   2.823  -0.000   0.000   0.000   0.000  -1.225   0.000   0.000   0.000   0.000   0.000   0.000
 -0.946  -0.000  -0.000   0.000   0.000   0.205  -0.000  -0.000   0.000  -0.000   0.000   0.000   0.000   0.000   0.000   0.000
 -0.000  -0.946   0.000   0.000   0.000  -0.000   0.205   0.000  -0.000   0.000   0.000   0.000   0.000   0.000   0.000   0.000
  0.000  -0.000  -1.225  -0.000   0.000  -0.000  -0.000   0.329  -0.000  -0.000   0.000   0.000   0.000   0.000   0.000   0.000
  0.000   0.000  -0.000  -0.946  -0.000   0.000  -0.000   0.000   0.205  -0.000   0.000   0.000   0.000   0.000   0.000   0.000
  0.000   0.000   0.000  -0.000  -1.225  -0.000   0.000  -0.000   0.000   0.329   0.000   0.000   0.000   0.000   0.000   0.000
  0.000   0.000   0.000   0.000   0.000   0.000  -0.000  -0.000   0.000   0.000  -0.261   0.072   0.000   0.000   0.000   0.000
  0.000   0.000   0.000   0.000   0.000  -0.000  -0.000   0.000   0.000   0.000   0.072  -0.012   0.000   0.000   0.000   0.000
  0.000   0.000   0.000   0.000   0.000   0.000   0.000   0.000   0.000   0.000   0.000   0.000  -0.026   0.000   0.000   0.003
  0.000   0.000   0.000   0.000   0.000   0.000   0.000   0.000   0.000   0.000   0.000   0.000   0.000  -0.026   0.000   0.000
  0.000   0.000   0.000   0.000   0.000   0.000   0.000   0.000   0.000   0.000   0.000   0.000   0.000   0.000  -0.026   0.000
  0.000   0.000   0.000   0.000   0.000   0.000   0.000   0.000   0.000   0.000   0.000   0.000   0.003   0.000   0.000  -0.000
  0.000   0.000   0.000   0.000   0.000   0.000   0.000   0.000   0.000   0.000   0.000   0.000   0.000   0.003   0.000   0.000
  0.000   0.000   0.000   0.000   0.000   0.000   0.000   0.000   0.000   0.000   0.000   0.000   0.000   0.000   0.003   0.000


------------------------ aborting loop because EDIFF is reached ----------------------------------------


 


 total charge     
 
# of ion     s       p       d       tot
----------------------------------------
  1        0.423   0.397   6.163   6.983
 


 magnetization (x)
 
# of ion     s       p       d       tot
----------------------------------------
  1       -0.016  -0.043   2.505   2.446
 
    CHARGE:  cpu time    0.0400: real time    0.0187
    FORLOC:  cpu time    0.0010: real time    0.0008
    FORNL :  cpu time    0.0760: real time    0.0380
    STRESS:  cpu time    0.2750: real time    0.1365
    FORCOR:  cpu time    0.0140: real time    0.0073
    FORHAR:  cpu time    0.0070: real time    0.0035
    MIXING:  cpu time    0.0030: real time    0.0016
    OFIELD:  cpu time    0.0000: real time    0.0000

  FORCE on cell =-STRESS in cart. coord.  units (eV):
  Direction    XX          YY          ZZ          XY          YZ          ZX
  --------------------------------------------------------------------------------------
  Alpha Z    49.61217    49.61217    49.61217
  Ewald    -186.32599  -186.32599  -186.32599    -0.00000     0.00000    -0.00000
  Hartree    36.24741    36.24741    36.24741    -0.00000    -0.00000    -0.00000
  E(xc)     -38.96653   -38.96653   -38.96653    -0.00000    -0.00000    -0.00000
  Local      53.51215    53.51215    53.51215    -0.00000    -0.00000    -0.00000
  n-local   -28.23880   -27.28845   -26.62845     1.32582    -0.75978    -1.24556
  augment    38.70203    38.70203    38.70203     0.00000     0.00000     0.00000
  Kinetic    72.13503    71.60639    71.44238    -2.57445     1.74363     1.15234
  Fock        0.00000     0.00000     0.00000     0.00000     0.00000     0.00000
  -------------------------------------------------------------------------------------
  Total      -2.87605    -2.87605    -2.87605     0.00000     0.00000    -0.00000
  in kB    -341.32963  -341.32963  -341.32963     0.00000     0.00000    -0.00000
  external pressure =     -341.33 kB  Pullay stress =        0.00 kB


 VOLUME and BASIS-vectors are now :
 -----------------------------------------------------------------------------
  energy-cutoff  :      400.00
  volume of cell :       13.50
      direct lattice vectors                 reciprocal lattice vectors
    -1.500000000  1.500000000  1.500000000     0.000000000  0.333333333  0.333333333
     1.500000000 -1.500000000  1.500000000     0.333333333  0.000000000  0.333333333
     1.500000000  1.500000000 -1.500000000     0.333333333  0.333333333  0.000000000

  length of vectors
     2.598076211  2.598076211  2.598076211     0.471404521  0.471404521  0.471404521


 FORCES acting on ions
    electron-ion (+dipol)            ewald-force                    non-local-force                 convergence-correction
 -----------------------------------------------------------------------------------------------
   -.308E-14 -.404E-14 0.326E-13   0.327E-15 0.197E-14 0.229E-15   -.145E-23 0.103E-23 -.103E-23   0.239E-14 -.888E-14 0.188E-13
 -----------------------------------------------------------------------------------------------
   -.308E-14 -.404E-14 0.326E-13   0.327E-15 0.197E-14 0.229E-15   -.145E-23 0.103E-23 -.103E-23   0.239E-14 -.888E-14 0.188E-13
 
 
 POSITION                                       TOTAL-FORCE (eV/Angst)
 -----------------------------------------------------------------------------------
      0.00000      0.00000      0.00000         0.000000      0.000000      0.000000
 -----------------------------------------------------------------------------------
    total drift:                               -0.000000     -0.000000      0.000000


--------------------------------------------------------------------------------------------------------



  FREE ENERGIE OF THE ION-ELECTRON SYSTEM (eV)
  ---------------------------------------------------
  free  energy   TOTEN  =        -8.78508236 eV

  energy  without entropy=       -8.78508236  energy(sigma->0) =       -8.78508236
 


--------------------------------------------------------------------------------------------------------


    POTLOK:  cpu time    0.0250: real time    0.0134


--------------------------------------------------------------------------------------------------------


 writing wavefunctions
     LOOP+:  cpu time   15.9976: real time    8.1731
    4ORBIT:  cpu time    0.0000: real time    0.0000
 


 total charge     
 
# of ion     s       p       d       tot
----------------------------------------
  1        0.423   0.397   6.163   6.983
 


 magnetization (x)
 
# of ion     s       p       d       tot
----------------------------------------
  1       -0.016  -0.043   2.505   2.446
 
 BZINTS: Fermi energy:  3.995312;  8.000000 electrons
         Band energy:  17.563776;  BLOECHL correction: -0.056286

 total amount of memory used by VASP on root node    33448. kBytes
========================================================================

   base      :      30000. kBytes
   nonl-proj :        947. kBytes
   fftplans  :        439. kBytes
   grid      :       1353. kBytes
   one-center:         31. kBytes
   wavefun   :        678. kBytes
 
  
  
 General timing and accounting informations for this job:
 ========================================================
  
                  Total CPU time used (sec):       16.745
                            User time (sec):       15.846
                          System time (sec):        0.900
                         Elapsed time (sec):        9.834
  
                   Maximum memory used (kb):       35728.
                   Average memory used (kb):           0.
  
                          Minor page faults:        21724
                          Major page faults:            6
                 Voluntary context switches:          541
