PROCAR lm decomposed
# of k-points:   26         # of bands:  12         # of ions:   1

 k-point    1 :    0.06250000 0.06250000 0.06250000     weight = 0.01562500

band   1 # energy   -2.69243532 # occ.  1.00000000
 
ion      s     py     pz     px    dxy    dyz    dz2    dxz    dx2    tot
  1  0.553  0.016  0.016  0.016  0.002  0.002  0.000  0.002  0.000  0.606
 
band   2 # energy    1.86215619 # occ.  1.00000000
 
ion      s     py     pz     px    dxy    dyz    dz2    dxz    dx2    tot
  1  0.000  0.000  0.001  0.001  0.460  0.415  0.015  0.053  0.005  0.951
 
band   3 # energy    1.86215619 # occ.  1.00000000
 
ion      s     py     pz     px    dxy    dyz    dz2    dxz    dx2    tot
  1  0.000  0.001  0.000  0.000  0.159  0.204  0.005  0.566  0.015  0.951
 
band   4 # energy    2.48987049 # occ.  1.00000000
 
ion      s     py     pz     px    dxy    dyz    dz2    dxz    dx2    tot
  1  0.001  0.002  0.002  0.002  0.318  0.318  0.000  0.318  0.000  0.962
 
band   5 # energy    3.01911623 # occ.  1.00000000
 
ion      s     py     pz     px    dxy    dyz    dz2    dxz    dx2    tot
  1  0.000  0.000  0.000  0.000  0.006  0.014  0.384  0.002  0.558  0.965
 
band   6 # energy    3.01911623 # occ.  1.00266161
 
ion      s     py     pz     px    dxy    dyz    dz2    dxz    dx2    tot
  1  0.000  0.000  0.000  0.000  0.009  0.001  0.558  0.013  0.384  0.965
 
band   7 # energy   23.41834007 # occ.  0.00000000
 
ion      s     py     pz     px    dxy    dyz    dz2    dxz    dx2    tot
  1  0.000  0.040  0.083  0.008  0.148  0.015  0.132  0.071  0.007  0.503
 
band   8 # energy   23.41834007 # occ.  0.00000000
 
ion      s     py     pz     px    dxy    dyz    dz2    dxz    dx2    tot
  1  0.000  0.048  0.004  0.079  0.008  0.141  0.007  0.085  0.132  0.503
 
band   9 # energy   25.84786354 # occ.  0.00000000
 
ion      s     py     pz     px    dxy    dyz    dz2    dxz    dx2    tot
  1  0.082  0.171  0.171  0.171  0.100  0.100  0.000  0.100  0.000  0.896
 
band  10 # energy   28.01690648 # occ.  0.00000000
 
ion      s     py     pz     px    dxy    dyz    dz2    dxz    dx2    tot
  1  0.000  0.000  0.000  0.000  0.000  0.000  0.000  0.000  0.000  0.000
 
band  11 # energy   31.54061672 # occ.  0.00000000
 
ion      s     py     pz     px    dxy    dyz    dz2    dxz    dx2    tot
  1  0.000  0.160  0.017  0.271  0.000  0.007  0.000  0.004  0.000  0.460
 
band  12 # energy   31.54061672 # occ.  0.00000000
 
ion      s     py     pz     px    dxy    dyz    dz2    dxz    dx2    tot
  1  0.000  0.139  0.281  0.028  0.007  0.001  0.000  0.004  0.000  0.460
 

 k-point    2 :    0.18750000 0.06250000 0.06250000     weight = 0.04687500

band   1 # energy   -1.24300363 # occ.  1.00000000
 
ion      s     py     pz     px    dxy    dyz    dz2    dxz    dx2    tot
  1  0.439  0.050  0.050  0.014  0.006  0.052  0.003  0.006  0.008  0.628
 
band   2 # energy    1.54257601 # occ.  1.00000000
 
ion      s     py     pz     px    dxy    dyz    dz2    dxz    dx2    tot
  1  0.000  0.002  0.002  0.000  0.457  0.000  0.016  0.457  0.005  0.938
 
band   3 # energy    1.71486087 # occ.  1.00000000
 
ion      s     py     pz     px    dxy    dyz    dz2    dxz    dx2    tot
  1  0.008  0.013  0.013  0.002  0.090  0.562  0.035  0.090  0.104  0.915
 
band   4 # energy    2.95816664 # occ.  1.00000000
 
ion      s     py     pz     px    dxy    dyz    dz2    dxz    dx2    tot
  1  0.001  0.000  0.000  0.000  0.014  0.136  0.200  0.014  0.601  0.967
 
band   5 # energy    3.10991206 # occ.  1.00000934
 
ion      s     py     pz     px    dxy    dyz    dz2    dxz    dx2    tot
  1  0.000  0.000  0.000  0.000  0.012  0.000  0.710  0.012  0.237  0.971
 
band   6 # energy    3.29639889 # occ.  0.95784217
 
ion      s     py     pz     px    dxy    dyz    dz2    dxz    dx2    tot
  1  0.011  0.008  0.008  0.008  0.370  0.181  0.000  0.370  0.000  0.958
 
band   7 # energy   18.10715432 # occ.  0.00000000
 
ion      s     py     pz     px    dxy    dyz    dz2    dxz    dx2    tot
  1  0.072  0.123  0.123  0.016  0.005  0.240  0.024  0.005  0.071  0.679
 
band   8 # energy   21.18054296 # occ.  0.00000000
 
ion      s     py     pz     px    dxy    dyz    dz2    dxz    dx2    tot
  1  0.000  0.107  0.107  0.000  0.129  0.000  0.056  0.129  0.019  0.546
 
band   9 # energy   22.50620714 # occ.  0.00000000
 
ion      s     py     pz     px    dxy    dyz    dz2    dxz    dx2    tot
  1  0.115  0.044  0.044  0.388  0.079  0.000  0.009  0.079  0.026  0.785
 
band  10 # energy   28.04473898 # occ.  0.00000000
 
ion      s     py     pz     px    dxy    dyz    dz2    dxz    dx2    tot
  1  0.000  0.006  0.006  0.000  0.161  0.000  0.017  0.161  0.006  0.356
 
band  11 # energy   30.87770950 # occ.  0.00000000
 
ion      s     py     pz     px    dxy    dyz    dz2    dxz    dx2    tot
  1  0.039  0.053  0.053  0.160  0.040  0.027  0.091  0.040  0.273  0.776
 
band  12 # energy   32.36289245 # occ.  0.00000000
 
ion      s     py     pz     px    dxy    dyz    dz2    dxz    dx2    tot
  1  0.000  0.124  0.124  0.000  0.098  0.000  0.012  0.098  0.004  0.460
 

 k-point    3 :    0.31250000 0.06250000 0.06250000     weight = 0.04687500

band   1 # energy   -0.02997013 # occ.  1.00000000
 
ion      s     py     pz     px    dxy    dyz    dz2    dxz    dx2    tot
  1  0.192  0.023  0.023  0.013  0.002  0.371  0.036  0.002  0.108  0.769
 
band   2 # energy    1.26513040 # occ.  1.00000000
 
ion      s     py     pz     px    dxy    dyz    dz2    dxz    dx2    tot
  1  0.000  0.002  0.002  0.000  0.459  0.000  0.005  0.459  0.002  0.930
 
band   3 # energy    2.30820888 # occ.  1.00000000
 
ion      s     py     pz     px    dxy    dyz    dz2    dxz    dx2    tot
  1  0.064  0.088  0.088  0.000  0.163  0.111  0.031  0.163  0.093  0.800
 
band   4 # energy    3.05516974 # occ.  1.00000000
 
ion      s     py     pz     px    dxy    dyz    dz2    dxz    dx2    tot
  1  0.002  0.001  0.001  0.000  0.015  0.273  0.166  0.015  0.498  0.972
 
band   5 # energy    3.18212206 # occ.  1.00878939
 
ion      s     py     pz     px    dxy    dyz    dz2    dxz    dx2    tot
  1  0.000  0.000  0.000  0.000  0.004  0.000  0.727  0.004  0.242  0.977
 
band   6 # energy    4.46162228 # occ.  0.07513408
 
ion      s     py     pz     px    dxy    dyz    dz2    dxz    dx2    tot
  1  0.047  0.048  0.048  0.007  0.310  0.123  0.001  0.310  0.003  0.897
 
band   7 # energy   12.95134865 # occ.  0.00000000
 
ion      s     py     pz     px    dxy    dyz    dz2    dxz    dx2    tot
  1  0.220  0.102  0.102  0.009  0.004  0.241  0.016  0.004  0.049  0.746
 
band   8 # energy   19.64322514 # occ.  0.00000000
 
ion      s     py     pz     px    dxy    dyz    dz2    dxz    dx2    tot
  1  0.000  0.128  0.128  0.000  0.121  0.000  0.016  0.121  0.005  0.520
 
band   9 # energy   20.48377901 # occ.  0.00000000
 
ion      s     py     pz     px    dxy    dyz    dz2    dxz    dx2    tot
  1  0.113  0.007  0.007  0.501  0.026  0.015  0.010  0.026  0.030  0.735
 
band  10 # energy   27.33250727 # occ.  0.00000000
 
ion      s     py     pz     px    dxy    dyz    dz2    dxz    dx2    tot
  1  0.000  0.010  0.010  0.000  0.300  0.000  0.005  0.300  0.002  0.627
 
band  11 # energy   30.23385741 # occ.  0.00000000
 
ion      s     py     pz     px    dxy    dyz    dz2    dxz    dx2    tot
  1  0.103  0.019  0.019  0.129  0.011  0.002  0.127  0.011  0.380  0.800
 
band  12 # energy   35.36896172 # occ.  0.00000000
 
ion      s     py     pz     px    dxy    dyz    dz2    dxz    dx2    tot
  1  0.000  0.107  0.107  0.000  0.045  0.000  0.135  0.045  0.045  0.484
 

 k-point    4 :    0.43750000 0.06250000 0.06250000     weight = 0.02343750

band   1 # energy    0.10174616 # occ.  1.00000000
 
ion      s     py     pz     px    dxy    dyz    dz2    dxz    dx2    tot
  1  0.103  0.000  0.000  0.011  0.000  0.487  0.058  0.000  0.173  0.832
 
band   2 # energy    1.15811984 # occ.  1.00000000
 
ion      s     py     pz     px    dxy    dyz    dz2    dxz    dx2    tot
  1  0.000  0.003  0.003  0.000  0.461  0.000  0.000  0.461  0.000  0.927
 
band   3 # energy    3.10184736 # occ.  1.00000000
 
ion      s     py     pz     px    dxy    dyz    dz2    dxz    dx2    tot
  1  0.008  0.000  0.000  0.000  0.000  0.277  0.172  0.000  0.516  0.974
 
band   4 # energy    3.14495138 # occ.  1.00000000
 
ion      s     py     pz     px    dxy    dyz    dz2    dxz    dx2    tot
  1  0.000  0.098  0.098  0.000  0.319  0.000  0.000  0.319  0.000  0.834
 
band   5 # energy    3.21141972 # occ.  1.03557320
 
ion      s     py     pz     px    dxy    dyz    dz2    dxz    dx2    tot
  1  0.000  0.000  0.000  0.000  0.000  0.000  0.735  0.000  0.245  0.980
 
band   6 # energy    5.76668671 # occ. -0.00802472
 
ion      s     py     pz     px    dxy    dyz    dz2    dxz    dx2    tot
  1  0.000  0.184  0.184  0.000  0.181  0.000  0.000  0.181  0.000  0.730
 
band   7 # energy    9.99074956 # occ.  0.00000000
 
ion      s     py     pz     px    dxy    dyz    dz2    dxz    dx2    tot
  1  0.411  0.000  0.000  0.013  0.000  0.333  0.018  0.000  0.054  0.827
 
band   8 # energy   19.09210369 # occ.  0.00000000
 
ion      s     py     pz     px    dxy    dyz    dz2    dxz    dx2    tot
  1  0.000  0.135  0.135  0.000  0.117  0.000  0.000  0.117  0.000  0.504
 
band   9 # energy   19.72870874 # occ.  0.00000000
 
ion      s     py     pz     px    dxy    dyz    dz2    dxz    dx2    tot
  1  0.111  0.000  0.000  0.542  0.000  0.022  0.009  0.000  0.028  0.712
 
band  10 # energy   27.05744102 # occ.  0.00000000
 
ion      s     py     pz     px    dxy    dyz    dz2    dxz    dx2    tot
  1  0.000  0.010  0.010  0.000  0.340  0.000  0.000  0.340  0.000  0.700
 
band  11 # energy   30.09917211 # occ.  0.00000000
 
ion      s     py     pz     px    dxy    dyz    dz2    dxz    dx2    tot
  1  0.136  0.000  0.000  0.119  0.000  0.018  0.141  0.000  0.422  0.835
 
band  12 # energy   35.74715150 # occ.  0.00000000
 
ion      s     py     pz     px    dxy    dyz    dz2    dxz    dx2    tot
  1  0.000  0.033  0.033  0.000  0.005  0.000  0.000  0.005  0.000  0.076
 

 k-point    5 :   -0.06250000 0.06250000 0.06250000     weight = 0.01171875

band   1 # energy   -3.23840627 # occ.  1.00000000
 
ion      s     py     pz     px    dxy    dyz    dz2    dxz    dx2    tot
  1  0.587  0.000  0.000  0.017  0.000  0.000  0.000  0.000  0.000  0.605
 
band   2 # energy    2.01750138 # occ.  1.00000000
 
ion      s     py     pz     px    dxy    dyz    dz2    dxz    dx2    tot
  1  0.000  0.001  0.001  0.000  0.478  0.000  0.000  0.478  0.000  0.958
 
band   3 # energy    2.01750142 # occ.  1.00000000
 
ion      s     py     pz     px    dxy    dyz    dz2    dxz    dx2    tot
  1  0.000  0.001  0.001  0.000  0.478  0.000  0.000  0.478  0.000  0.958
 
band   4 # energy    2.08674470 # occ.  1.00000000
 
ion      s     py     pz     px    dxy    dyz    dz2    dxz    dx2    tot
  1  0.000  0.000  0.000  0.000  0.000  0.961  0.000  0.000  0.000  0.961
 
band   5 # energy    2.96452150 # occ.  1.00000000
 
ion      s     py     pz     px    dxy    dyz    dz2    dxz    dx2    tot
  1  0.000  0.000  0.000  0.000  0.000  0.000  0.721  0.000  0.240  0.961
 
band   6 # energy    3.11522254 # occ.  1.00000000
 
ion      s     py     pz     px    dxy    dyz    dz2    dxz    dx2    tot
  1  0.000  0.000  0.000  0.000  0.000  0.000  0.242  0.000  0.727  0.969
 
band   7 # energy   25.52454684 # occ.  0.00000000
 
ion      s     py     pz     px    dxy    dyz    dz2    dxz    dx2    tot
  1  0.000  0.000  0.000  0.000  0.000  0.000  0.168  0.000  0.056  0.224
 
band   8 # energy   26.61046652 # occ.  0.00000000
 
ion      s     py     pz     px    dxy    dyz    dz2    dxz    dx2    tot
  1  0.000  0.028  0.028  0.000  0.138  0.000  0.000  0.138  0.000  0.332
 
band   9 # energy   26.61046652 # occ.  0.00000000
 
ion      s     py     pz     px    dxy    dyz    dz2    dxz    dx2    tot
  1  0.000  0.028  0.028  0.000  0.138  0.000  0.000  0.138  0.000  0.332
 
band  10 # energy   28.73077688 # occ.  0.00000000
 
ion      s     py     pz     px    dxy    dyz    dz2    dxz    dx2    tot
  1  0.026  0.000  0.000  0.386  0.000  0.000  0.045  0.000  0.134  0.590
 
band  11 # energy   30.27163666 # occ.  0.00000000
 
ion      s     py     pz     px    dxy    dyz    dz2    dxz    dx2    tot
  1  0.000  0.241  0.238  0.000  0.122  0.000  0.000  0.121  0.000  0.721
 
band  12 # energy   30.27163667 # occ.  0.00000000
 
ion      s     py     pz     px    dxy    dyz    dz2    dxz    dx2    tot
  1  0.000  0.238  0.241  0.000  0.121  0.000  0.000  0.122  0.000  0.721
 

 k-point    6 :    0.18750000 0.18750000 0.06250000     weight = 0.04687500

band   1 # energy    0.16139794 # occ.  1.00000000
 
ion      s     py     pz     px    dxy    dyz    dz2    dxz    dx2    tot
  1  0.261  0.035  0.061  0.035  0.001  0.137  0.037  0.137  0.000  0.705
 
band   2 # energy    1.33474630 # occ.  1.00000000
 
ion      s     py     pz     px    dxy    dyz    dz2    dxz    dx2    tot
  1  0.000  0.014  0.000  0.014  0.000  0.348  0.000  0.348  0.180  0.904
 
band   3 # energy    1.46120884 # occ.  1.00000000
 
ion      s     py     pz     px    dxy    dyz    dz2    dxz    dx2    tot
  1  0.019  0.002  0.042  0.002  0.649  0.087  0.008  0.087  0.000  0.897
 
band   4 # energy    3.01713490 # occ.  1.00000000
 
ion      s     py     pz     px    dxy    dyz    dz2    dxz    dx2    tot
  1  0.000  0.000  0.000  0.000  0.000  0.102  0.000  0.102  0.766  0.970
 
band   5 # energy    3.20260218 # occ.  1.00000804
 
ion      s     py     pz     px    dxy    dyz    dz2    dxz    dx2    tot
  1  0.004  0.000  0.000  0.000  0.000  0.032  0.909  0.032  0.000  0.976
 
band   6 # energy    4.61893677 # occ.  0.05491308
 
ion      s     py     pz     px    dxy    dyz    dz2    dxz    dx2    tot
  1  0.061  0.022  0.042  0.022  0.299  0.221  0.019  0.221  0.000  0.907
 
band   7 # energy   15.88824991 # occ.  0.00000000
 
ion      s     py     pz     px    dxy    dyz    dz2    dxz    dx2    tot
  1  0.000  0.154  0.000  0.154  0.000  0.139  0.000  0.139  0.095  0.681
 
band   8 # energy   16.33817065 # occ.  0.00000000
 
ion      s     py     pz     px    dxy    dyz    dz2    dxz    dx2    tot
  1  0.236  0.024  0.230  0.024  0.046  0.067  0.009  0.067  0.000  0.703
 
band   9 # energy   19.87542965 # occ.  0.00000000
 
ion      s     py     pz     px    dxy    dyz    dz2    dxz    dx2    tot
  1  0.104  0.177  0.020  0.177  0.150  0.011  0.025  0.011  0.000  0.676
 
band  10 # energy   29.76934270 # occ.  0.00000000
 
ion      s     py     pz     px    dxy    dyz    dz2    dxz    dx2    tot
  1  0.000  0.016  0.000  0.016  0.000  0.073  0.000  0.073  0.150  0.328
 
band  11 # energy   32.61207975 # occ.  0.00000000
 
ion      s     py     pz     px    dxy    dyz    dz2    dxz    dx2    tot
  1  0.024  0.029  0.046  0.029  0.304  0.141  0.018  0.141  0.000  0.732
 
band  12 # energy   34.75605540 # occ.  0.00000000
 
ion      s     py     pz     px    dxy    dyz    dz2    dxz    dx2    tot
  1  0.000  0.098  0.000  0.098  0.000  0.004  0.000  0.004  0.344  0.549
 

 k-point    7 :    0.31250000 0.18750000 0.06250000     weight = 0.09375000

band   1 # energy    0.60855524 # occ.  1.00000000
 
ion      s     py     pz     px    dxy    dyz    dz2    dxz    dx2    tot
  1  0.075  0.002  0.006  0.033  0.026  0.521  0.053  0.042  0.087  0.845
 
band   2 # energy    1.19016146 # occ.  1.00000000
 
ion      s     py     pz     px    dxy    dyz    dz2    dxz    dx2    tot
  1  0.000  0.015  0.007  0.009  0.320  0.025  0.001  0.464  0.065  0.905
 
band   3 # energy    1.98035042 # occ.  1.00000000
 
ion      s     py     pz     px    dxy    dyz    dz2    dxz    dx2    tot
  1  0.016  0.061  0.085  0.000  0.380  0.013  0.070  0.152  0.059  0.836
 
band   4 # energy    3.12062040 # occ.  1.00000000
 
ion      s     py     pz     px    dxy    dyz    dz2    dxz    dx2    tot
  1  0.002  0.001  0.000  0.001  0.000  0.201  0.055  0.043  0.671  0.974
 
band   5 # energy    3.27212204 # occ.  1.00075525
 
ion      s     py     pz     px    dxy    dyz    dz2    dxz    dx2    tot
  1  0.003  0.002  0.003  0.000  0.051  0.012  0.771  0.075  0.058  0.976
 
band   6 # energy    6.78876702 # occ. -0.00647542
 
ion      s     py     pz     px    dxy    dyz    dz2    dxz    dx2    tot
  1  0.078  0.096  0.144  0.016  0.173  0.086  0.030  0.161  0.000  0.783
 
band   7 # energy   11.42784263 # occ.  0.00000000
 
ion      s     py     pz     px    dxy    dyz    dz2    dxz    dx2    tot
  1  0.256  0.106  0.033  0.047  0.015  0.232  0.003  0.014  0.046  0.753
 
band   8 # energy   15.00498386 # occ.  0.00000000
 
ion      s     py     pz     px    dxy    dyz    dz2    dxz    dx2    tot
  1  0.168  0.043  0.083  0.172  0.062  0.007  0.001  0.126  0.026  0.688
 
band   9 # energy   18.78147362 # occ.  0.00000000
 
ion      s     py     pz     px    dxy    dyz    dz2    dxz    dx2    tot
  1  0.098  0.110  0.064  0.201  0.100  0.035  0.007  0.046  0.002  0.662
 
band  10 # energy   29.94667270 # occ.  0.00000000
 
ion      s     py     pz     px    dxy    dyz    dz2    dxz    dx2    tot
  1  0.010  0.000  0.003  0.033  0.113  0.003  0.015  0.172  0.138  0.485
 
band  11 # energy   33.80400479 # occ.  0.00000000
 
ion      s     py     pz     px    dxy    dyz    dz2    dxz    dx2    tot
  1  0.003  0.072  0.000  0.001  0.142  0.054  0.068  0.014  0.128  0.482
 
band  12 # energy   35.18013880 # occ.  0.00000000
 
ion      s     py     pz     px    dxy    dyz    dz2    dxz    dx2    tot
  1  0.046  0.004  0.004  0.118  0.049  0.005  0.217  0.035  0.221  0.699
 

 k-point    8 :   -0.18750000 0.18750000 0.06250000     weight = 0.04687500

band   1 # energy   -2.17511365 # occ.  1.00000000
 
ion      s     py     pz     px    dxy    dyz    dz2    dxz    dx2    tot
  1  0.516  0.014  0.000  0.061  0.010  0.000  0.004  0.000  0.004  0.610
 
band   2 # energy    1.81094603 # occ.  1.00000000
 
ion      s     py     pz     px    dxy    dyz    dz2    dxz    dx2    tot
  1  0.000  0.000  0.002  0.000  0.000  0.368  0.000  0.580  0.000  0.950
 
band   3 # energy    1.97255765 # occ.  1.00000000
 
ion      s     py     pz     px    dxy    dyz    dz2    dxz    dx2    tot
  1  0.003  0.009  0.000  0.005  0.824  0.000  0.089  0.000  0.009  0.938
 
band   4 # energy    2.57514397 # occ.  1.00000000
 
ion      s     py     pz     px    dxy    dyz    dz2    dxz    dx2    tot
  1  0.000  0.000  0.005  0.000  0.000  0.592  0.000  0.368  0.000  0.964
 
band   5 # energy    2.77095398 # occ.  1.00000000
 
ion      s     py     pz     px    dxy    dyz    dz2    dxz    dx2    tot
  1  0.000  0.000  0.000  0.000  0.104  0.000  0.673  0.000  0.178  0.955
 
band   6 # energy    3.18722703 # occ.  1.00851989
 
ion      s     py     pz     px    dxy    dyz    dz2    dxz    dx2    tot
  1  0.004  0.000  0.000  0.001  0.004  0.000  0.185  0.000  0.778  0.972
 
band   7 # energy   20.86450729 # occ.  0.00000000
 
ion      s     py     pz     px    dxy    dyz    dz2    dxz    dx2    tot
  1  0.035  0.142  0.000  0.071  0.240  0.000  0.134  0.000  0.009  0.630
 
band   8 # energy   24.18815964 # occ.  0.00000000
 
ion      s     py     pz     px    dxy    dyz    dz2    dxz    dx2    tot
  1  0.030  0.003  0.000  0.159  0.024  0.000  0.055  0.000  0.114  0.385
 
band   9 # energy   24.58307377 # occ.  0.00000000
 
ion      s     py     pz     px    dxy    dyz    dz2    dxz    dx2    tot
  1  0.000  0.000  0.282  0.000  0.000  0.007  0.000  0.469  0.000  0.758
 
band  10 # energy   28.16631333 # occ.  0.00000000
 
ion      s     py     pz     px    dxy    dyz    dz2    dxz    dx2    tot
  1  0.000  0.296  0.000  0.067  0.152  0.000  0.128  0.000  0.000  0.643
 
band  11 # energy   28.25725019 # occ.  0.00000000
 
ion      s     py     pz     px    dxy    dyz    dz2    dxz    dx2    tot
  1  0.000  0.000  0.283  0.000  0.000  0.408  0.000  0.005  0.000  0.695
 
band  12 # energy   29.77151389 # occ.  0.00000000
 
ion      s     py     pz     px    dxy    dyz    dz2    dxz    dx2    tot
  1  0.093  0.078  0.000  0.128  0.016  0.000  0.063  0.000  0.013  0.390
 

 k-point    9 :    0.31250000 0.31250000 0.06250000     weight = 0.01562500

band   1 # energy    0.88482869 # occ.  1.00000000
 
ion      s     py     pz     px    dxy    dyz    dz2    dxz    dx2    tot
  1  0.033  0.005  0.005  0.005  0.283  0.283  0.000  0.283  0.000  0.895
 
band   2 # energy    1.47804247 # occ.  1.00000000
 
ion      s     py     pz     px    dxy    dyz    dz2    dxz    dx2    tot
  1  0.000  0.017  0.068  0.017  0.370  0.093  0.201  0.093  0.000  0.859
 
band   3 # energy    1.47804249 # occ.  1.00000000
 
ion      s     py     pz     px    dxy    dyz    dz2    dxz    dx2    tot
  1  0.000  0.051  0.000  0.051  0.000  0.278  0.000  0.278  0.201  0.859
 
band   4 # energy    3.22890466 # occ.  1.00000000
 
ion      s     py     pz     px    dxy    dyz    dz2    dxz    dx2    tot
  1  0.000  0.001  0.003  0.001  0.154  0.038  0.742  0.038  0.000  0.977
 
band   5 # energy    3.22890469 # occ.  1.00000000
 
ion      s     py     pz     px    dxy    dyz    dz2    dxz    dx2    tot
  1  0.000  0.002  0.000  0.002  0.000  0.115  0.000  0.115  0.742  0.977
 
band   6 # energy    9.98554352 # occ.  0.00000000
 
ion      s     py     pz     px    dxy    dyz    dz2    dxz    dx2    tot
  1  0.000  0.063  0.253  0.063  0.193  0.048  0.051  0.048  0.000  0.721
 
band   7 # energy    9.98554353 # occ.  0.00000000
 
ion      s     py     pz     px    dxy    dyz    dz2    dxz    dx2    tot
  1  0.000  0.190  0.000  0.190  0.000  0.145  0.000  0.145  0.051  0.721
 
band   8 # energy   11.78920163 # occ.  0.00000000
 
ion      s     py     pz     px    dxy    dyz    dz2    dxz    dx2    tot
  1  0.580  0.001  0.001  0.001  0.061  0.061  0.000  0.061  0.000  0.765
 
band   9 # energy   18.36063521 # occ.  0.00000000
 
ion      s     py     pz     px    dxy    dyz    dz2    dxz    dx2    tot
  1  0.101  0.121  0.121  0.121  0.071  0.071  0.000  0.071  0.000  0.675
 
band  10 # energy   32.20628910 # occ.  0.00000000
 
ion      s     py     pz     px    dxy    dyz    dz2    dxz    dx2    tot
  1  0.000  0.008  0.033  0.008  0.047  0.011  0.264  0.012  0.000  0.383
 
band  11 # energy   32.20628910 # occ.  0.00000000
 
ion      s     py     pz     px    dxy    dyz    dz2    dxz    dx2    tot
  1  0.000  0.025  0.000  0.025  0.000  0.035  0.000  0.035  0.264  0.383
 
band  12 # energy   37.83943952 # occ.  0.00000000
 
ion      s     py     pz     px    dxy    dyz    dz2    dxz    dx2    tot
  1  0.040  0.066  0.066  0.066  0.301  0.301  0.000  0.301  0.000  1.139
 

 k-point   10 :   -0.31250000 0.31250000 0.06250000     weight = 0.04687500

band   1 # energy   -0.60047985 # occ.  1.00000000
 
ion      s     py     pz     px    dxy    dyz    dz2    dxz    dx2    tot
  1  0.330  0.026  0.000  0.078  0.165  0.000  0.071  0.000  0.010  0.680
 
band   2 # energy    1.50049197 # occ.  1.00000000
 
ion      s     py     pz     px    dxy    dyz    dz2    dxz    dx2    tot
  1  0.000  0.000  0.002  0.000  0.000  0.424  0.000  0.513  0.000  0.939
 
band   3 # energy    2.02578122 # occ.  1.00000000
 
ion      s     py     pz     px    dxy    dyz    dz2    dxz    dx2    tot
  1  0.044  0.047  0.000  0.050  0.317  0.000  0.264  0.000  0.127  0.849
 
band   4 # energy    2.90214207 # occ.  1.00000000
 
ion      s     py     pz     px    dxy    dyz    dz2    dxz    dx2    tot
  1  0.001  0.006  0.000  0.007  0.419  0.000  0.502  0.000  0.026  0.960
 
band   5 # energy    3.31931730 # occ.  1.00107327
 
ion      s     py     pz     px    dxy    dyz    dz2    dxz    dx2    tot
  1  0.025  0.006  0.000  0.012  0.005  0.000  0.099  0.000  0.810  0.958
 
band   6 # energy    3.37419950 # occ.  0.83878006
 
ion      s     py     pz     px    dxy    dyz    dz2    dxz    dx2    tot
  1  0.000  0.000  0.006  0.000  0.000  0.535  0.000  0.433  0.000  0.974
 
band   7 # energy   15.33835206 # occ.  0.00000000
 
ion      s     py     pz     px    dxy    dyz    dz2    dxz    dx2    tot
  1  0.144  0.164  0.000  0.092  0.236  0.000  0.082  0.000  0.005  0.723
 
band   8 # energy   22.01590799 # occ.  0.00000000
 
ion      s     py     pz     px    dxy    dyz    dz2    dxz    dx2    tot
  1  0.030  0.063  0.000  0.152  0.001  0.000  0.063  0.000  0.051  0.360
 
band   9 # energy   22.34868880 # occ.  0.00000000
 
ion      s     py     pz     px    dxy    dyz    dz2    dxz    dx2    tot
  1  0.000  0.000  0.491  0.000  0.000  0.005  0.000  0.303  0.000  0.800
 
band  10 # energy   26.72325541 # occ.  0.00000000
 
ion      s     py     pz     px    dxy    dyz    dz2    dxz    dx2    tot
  1  0.000  0.000  0.148  0.000  0.000  0.489  0.000  0.179  0.000  0.816
 
band  11 # energy   28.24965242 # occ.  0.00000000
 
ion      s     py     pz     px    dxy    dyz    dz2    dxz    dx2    tot
  1  0.084  0.216  0.000  0.001  0.003  0.000  0.387  0.000  0.002  0.693
 
band  12 # energy   31.12394890 # occ.  0.00000000
 
ion      s     py     pz     px    dxy    dyz    dz2    dxz    dx2    tot
  1  0.100  0.028  0.000  0.070  0.180  0.000  0.012  0.000  0.106  0.495
 

 k-point   11 :   -0.18750000 0.31250000 0.06250000     weight = 0.04687500

band   1 # energy   -0.83276547 # occ.  1.00000000
 
ion      s     py     pz     px    dxy    dyz    dz2    dxz    dx2    tot
  1  0.391  0.011  0.011  0.110  0.032  0.000  0.014  0.032  0.041  0.639
 
band   2 # energy    1.67594796 # occ.  1.00000000
 
ion      s     py     pz     px    dxy    dyz    dz2    dxz    dx2    tot
  1  0.000  0.008  0.008  0.000  0.295  0.000  0.233  0.295  0.078  0.917
 
band   3 # energy    1.80003406 # occ.  1.00000000
 
ion      s     py     pz     px    dxy    dyz    dz2    dxz    dx2    tot
  1  0.007  0.003  0.003  0.014  0.222  0.460  0.000  0.222  0.000  0.931
 
band   4 # energy    2.65588255 # occ.  1.00000000
 
ion      s     py     pz     px    dxy    dyz    dz2    dxz    dx2    tot
  1  0.000  0.001  0.001  0.000  0.167  0.000  0.463  0.167  0.154  0.954
 
band   5 # energy    3.17113448 # occ.  1.00000829
 
ion      s     py     pz     px    dxy    dyz    dz2    dxz    dx2    tot
  1  0.000  0.003  0.003  0.001  0.171  0.366  0.064  0.171  0.192  0.972
 
band   6 # energy    3.45982659 # occ.  0.86463312
 
ion      s     py     pz     px    dxy    dyz    dz2    dxz    dx2    tot
  1  0.037  0.004  0.004  0.015  0.044  0.134  0.167  0.044  0.502  0.952
 
band   7 # energy   18.27960229 # occ.  0.00000000
 
ion      s     py     pz     px    dxy    dyz    dz2    dxz    dx2    tot
  1  0.000  0.131  0.131  0.000  0.116  0.000  0.136  0.116  0.045  0.674
 
band   8 # energy   18.86697358 # occ.  0.00000000
 
ion      s     py     pz     px    dxy    dyz    dz2    dxz    dx2    tot
  1  0.154  0.073  0.073  0.169  0.109  0.011  0.001  0.109  0.002  0.700
 
band   9 # energy   25.01911254 # occ.  0.00000000
 
ion      s     py     pz     px    dxy    dyz    dz2    dxz    dx2    tot
  1  0.000  0.212  0.212  0.078  0.008  0.075  0.002  0.008  0.007  0.603
 
band  10 # energy   25.30431747 # occ.  0.00000000
 
ion      s     py     pz     px    dxy    dyz    dz2    dxz    dx2    tot
  1  0.000  0.057  0.057  0.000  0.094  0.000  0.185  0.094  0.062  0.549
 
band  11 # energy   28.58863693 # occ.  0.00000000
 
ion      s     py     pz     px    dxy    dyz    dz2    dxz    dx2    tot
  1  0.101  0.000  0.000  0.065  0.116  0.277  0.012  0.116  0.035  0.723
 
band  12 # energy   32.86013573 # occ.  0.00000000
 
ion      s     py     pz     px    dxy    dyz    dz2    dxz    dx2    tot
  1  0.000  0.138  0.138  0.000  0.014  0.000  0.074  0.014  0.025  0.405
 

 k-point   12 :   -0.43750000 0.43750000 0.06250000     weight = 0.04687500

band   1 # energy   -0.01346623 # occ.  1.00000000
 
ion      s     py     pz     px    dxy    dyz    dz2    dxz    dx2    tot
  1  0.128  0.001  0.000  0.014  0.424  0.000  0.247  0.000  0.001  0.815
 
band   2 # energy    1.28857835 # occ.  1.00000000
 
ion      s     py     pz     px    dxy    dyz    dz2    dxz    dx2    tot
  1  0.000  0.000  0.002  0.000  0.000  0.452  0.000  0.478  0.000  0.933
 
band   3 # energy    2.68126926 # occ.  1.00000000
 
ion      s     py     pz     px    dxy    dyz    dz2    dxz    dx2    tot
  1  0.015  0.046  0.000  0.050  0.002  0.000  0.115  0.000  0.653  0.880
 
band   4 # energy    3.03424962 # occ.  1.00000000
 
ion      s     py     pz     px    dxy    dyz    dz2    dxz    dx2    tot
  1  0.005  0.004  0.000  0.003  0.320  0.000  0.544  0.000  0.089  0.967
 
band   5 # energy    4.01383359 # occ.  0.93928453
 
ion      s     py     pz     px    dxy    dyz    dz2    dxz    dx2    tot
  1  0.000  0.000  0.001  0.000  0.000  0.510  0.000  0.477  0.000  0.988
 
band   6 # energy    4.49863141 # occ.  0.01430405
 
ion      s     py     pz     px    dxy    dyz    dz2    dxz    dx2    tot
  1  0.054  0.159  0.000  0.192  0.071  0.000  0.010  0.000  0.235  0.721
 
band   7 # energy   10.86522517 # occ.  0.00000000
 
ion      s     py     pz     px    dxy    dyz    dz2    dxz    dx2    tot
  1  0.332  0.078  0.000  0.025  0.285  0.000  0.075  0.000  0.003  0.797
 
band   8 # energy   20.80022462 # occ.  0.00000000
 
ion      s     py     pz     px    dxy    dyz    dz2    dxz    dx2    tot
  1  0.027  0.108  0.000  0.134  0.000  0.000  0.060  0.000  0.006  0.336
 
band   9 # energy   20.85312819 # occ.  0.00000000
 
ion      s     py     pz     px    dxy    dyz    dz2    dxz    dx2    tot
  1  0.000  0.000  0.594  0.000  0.000  0.029  0.000  0.122  0.000  0.745
 
band  10 # energy   26.07982619 # occ.  0.00000000
 
ion      s     py     pz     px    dxy    dyz    dz2    dxz    dx2    tot
  1  0.000  0.000  0.097  0.000  0.000  0.455  0.000  0.356  0.000  0.908
 
band  11 # energy   28.37625572 # occ.  0.00000000
 
ion      s     py     pz     px    dxy    dyz    dz2    dxz    dx2    tot