<?xml version="1.0" encoding="ISO-8859-1"?>
<modeling>
 <generator>
  <i name="program" type="string">vasp </i>
  <i name="version" type="string">5.4.1  </i>
  <i name="subversion" type="string">24Jun15 (build Jul 19 2016 16:50:41) complex                          parallel </i>
  <i name="platform" type="string">IFC91_ompi </i>
  <i name="date" type="string">2019 10 17 </i>
  <i name="time" type="string">12:06:15 </i>
 </generator>
 <incar>
  <i type="string" name="SYSTEM"> Fe BCC</i>
  <i type="string" name="PREC">accurate</i>
  <i type="int" name="ISPIN">     2</i>
  <i name="EDIFF">      0.00000100</i>
  <i name="ENMAX">    400.00000000</i>
  <v name="MAGMOM">      4.00000000</v>
  <i type="int" name="ISMEAR">    -5</i>
  <i type="logical" name="LORBIT"> F  </i>
  <v type="int" name="KPOINT_BSE">    -1     0     0     0</v>
 </incar>
 <kpoints>
  <generation param="Monkhorst-Pack">
   <v type="int" name="divisions">       8        8        8 </v>
   <v name="usershift">      0.00000000       0.00000000       0.00000000 </v>
   <v name="genvec1">      0.12500000       0.00000000       0.00000000 </v>
   <v name="genvec2">      0.00000000       0.12500000       0.00000000 </v>
   <v name="genvec3">      0.00000000       0.00000000       0.12500000 </v>
   <v name="shift">      0.50000000       0.50000000       0.50000000 </v>
  </generation>
  <varray name="kpointlist" >
   <v>       0.06250000       0.06250000       0.06250000 </v>
   <v>       0.18750000       0.06250000       0.06250000 </v>
   <v>       0.31250000       0.06250000       0.06250000 </v>
   <v>       0.43750000       0.06250000       0.06250000 </v>
   <v>      -0.06250000       0.06250000       0.06250000 </v>
   <v>       0.18750000       0.18750000       0.06250000 </v>
   <v>       0.31250000       0.18750000       0.06250000 </v>
   <v>      -0.18750000       0.18750000       0.06250000 </v>
   <v>       0.31250000       0.31250000       0.06250000 </v>
   <v>      -0.31250000       0.31250000       0.06250000 </v>
   <v>      -0.18750000       0.31250000       0.06250000 </v>
   <v>      -0.43750000       0.43750000       0.06250000 </v>
   <v>      -0.31250000       0.43750000       0.06250000 </v>
   <v>      -0.43750000      -0.43750000       0.06250000 </v>
   <v>      -0.31250000      -0.43750000       0.06250000 </v>
   <v>       0.18750000       0.18750000       0.18750000 </v>
   <v>       0.31250000       0.18750000       0.18750000 </v>
   <v>      -0.18750000       0.18750000       0.18750000 </v>
   <v>      -0.31250000       0.31250000       0.18750000 </v>
   <v>      -0.43750000       0.43750000       0.18750000 </v>
   <v>      -0.31250000       0.43750000       0.18750000 </v>
   <v>      -0.43750000      -0.43750000       0.18750000 </v>
   <v>      -0.31250000       0.31250000       0.31250000 </v>
   <v>      -0.43750000       0.43750000       0.31250000 </v>
   <v>      -0.43750000      -0.43750000       0.31250000 </v>
   <v>      -0.43750000       0.43750000       0.43750000 </v>
  </varray>
  <varray name="weights" >
   <v>       0.01562500 </v>
   <v>       0.04687500 </v>
   <v>       0.04687500 </v>
   <v>       0.02343750 </v>
   <v>       0.01171875 </v>
   <v>       0.04687500 </v>
   <v>       0.09375000 </v>
   <v>       0.04687500 </v>
   <v>       0.01562500 </v>
   <v>       0.04687500 </v>
   <v>       0.04687500 </v>
   <v>       0.04687500 </v>
   <v>       0.09375000 </v>
   <v>       0.04687500 </v>
   <v>       0.04687500 </v>
   <v>       0.01562500 </v>
   <v>       0.02343750 </v>
   <v>       0.01171875 </v>
   <v>       0.04687500 </v>
   <v>       0.04687500 </v>
   <v>       0.04687500 </v>
   <v>       0.04687500 </v>
   <v>       0.01171875 </v>
   <v>       0.04687500 </v>
   <v>       0.01562500 </v>
   <v>       0.01171875 </v>
  </varray>
  <varray name="tetrahedronlist"  type="int" >
   <v type="int" >        4        1        2        2        6 </v>
   <v type="int" >        8        2        2        6        6 </v>
   <v type="int" >        4        2        6        6       16 </v>
   <v type="int" >        4        2        3        6        7 </v>
   <v type="int" >        4        2        6        6        7 </v>
   <v type="int" >       12        6        6        7       16 </v>
   <v type="int" >        8        3        6        7        7 </v>
   <v type="int" >        8        6        7        7       17 </v>
   <v type="int" >        8        6        7       16       17 </v>
   <v type="int" >        4        3        4        7        7 </v>
   <v type="int" >        4        3        7        7        7 </v>
   <v type="int" >       16        7        7        7       17 </v>
   <v type="int" >        8        4        7        7        7 </v>
   <v type="int" >        4        7        7        7       16 </v>
   <v type="int" >       20        7        7       16       17 </v>
   <v type="int" >        4        3        4        6        7 </v>
   <v type="int" >        4        4        6        7        7 </v>
   <v type="int" >       16        6        7        7       16 </v>
   <v type="int" >        8        3        6        6        7 </v>
   <v type="int" >        4        6        6        6        7 </v>
   <v type="int" >        4        2        2        3        6 </v>
   <v type="int" >        8        2        3        6        6 </v>
   <v type="int" >        4        2        6        6        6 </v>
   <v type="int" >        4        2        2        2        6 </v>
   <v type="int" >        8        2        2        6       11 </v>
   <v type="int" >        4        2        6        6       11 </v>
   <v type="int" >       16        1        2        2        8 </v>
   <v type="int" >        4        2        2        2        8 </v>
   <v type="int" >       12        2        2        8       11 </v>
   <v type="int" >       16        1        2        8        8 </v>
   <v type="int" >        4        2        8        8       18 </v>
   <v type="int" >        4        2        8       11       18 </v>
   <v type="int" >       20        1        5        8        8 </v>
   <v type="int" >        4        1        8        8        8 </v>
   <v type="int" >        4        8        8        8       18 </v>
   <v type="int" >        8        5        8        8        8 </v>
   <v type="int" >        4        8        8        8       11 </v>
   <v type="int" >        4        8        8       11       18 </v>
   <v type="int" >        8        1        2        5        8 </v>
   <v type="int" >        8        2        5        8        8 </v>
   <v type="int" >        8        2        8        8       11 </v>
   <v type="int" >        4        2        2        6        8 </v>
   <v type="int" >        4        2        6        8       11 </v>
   <v type="int" >        4        6        7        9       16 </v>
   <v type="int" >       16        7        9       16       17 </v>
   <v type="int" >       12        9       16       17       17 </v>
   <v type="int" >       20        7        7        9       17 </v>
   <v type="int" >       12        7        9       17       17 </v>
   <v type="int" >        8        7        7       17       17 </v>
   <v type="int" >       12        3        6        7       16 </v>
   <v type="int" >        8        3        7        7       16 </v>
   <v type="int" >        8        3        6        6       16 </v>
   <v type="int" >        4        3        6       13       16 </v>
   <v type="int" >        4        3        7       13       16 </v>
   <v type="int" >        4        2        6        6       10 </v>
   <v type="int" >        4        3        6        6       10 </v>
   <v type="int" >        8        3        6       10       13 </v>
   <v type="int" >       12        2        6       10       11 </v>
   <v type="int" >        4        6       10       11       19 </v>
   <v type="int" >        4        6       10       13       19 </v>
   <v type="int" >        4        2        8       11       11 </v>
   <v type="int" >        4        2       10       11       11 </v>
   <v type="int" >        4       10       11       11       19 </v>
   <v type="int" >        8        8       11       11       18 </v>
   <v type="int" >        8       11       11       18       19 </v>
   <v type="int" >        4       11       11       19       19 </v>
   <v type="int" >        4        8        8       10       18 </v>
   <v type="int" >       12        8       10       11       18 </v>
   <v type="int" >       12       10       11       18       19 </v>
   <v type="int" >        4       10       11       13       18 </v>
   <v type="int" >        4       10       13       18       19 </v>
   <v type="int" >        4        2        3        8       11 </v>
   <v type="int" >        4        3        8       10       11 </v>
   <v type="int" >        8        3       10       11       13 </v>
   <v type="int" >       16        2        3        6       11 </v>
   <v type="int" >        4        3        6        7       11 </v>
   <v type="int" >        4        3        7       11       13 </v>
   <v type="int" >        4        4        7        9       17 </v>
   <v type="int" >        8        4        7        7       17 </v>
   <v type="int" >        4        4        7       14       17 </v>
   <v type="int" >        4        3        7        7       12 </v>
   <v type="int" >        8        4        7        7       12 </v>
   <v type="int" >        8        4        7       12       14 </v>
   <v type="int" >        8        3        7       12       13 </v>
   <v type="int" >        4        7       12       13       20 </v>
   <v type="int" >        4        7       12       14       20 </v>
   <v type="int" >        4        3       10       13       13 </v>
   <v type="int" >        4        3       12       13       13 </v>
   <v type="int" >        4       12       13       13       20 </v>
   <v type="int" >        8       10       13       13       19 </v>
   <v type="int" >       12       13       13       19       21 </v>
   <v type="int" >        4       13       13       20       21 </v>
   <v type="int" >        8       10       11       13       19 </v>
   <v type="int" >        8       11       13       19       19 </v>
   <v type="int" >        4       13       19       19       20 </v>
   <v type="int" >        8       13       19       20       21 </v>
   <v type="int" >        4       10       11       12       19 </v>
   <v type="int" >        4       11       12       13       19 </v>
   <v type="int" >        8       12       13       19       20 </v>
   <v type="int" >        8       10       12       13       19 </v>
   <v type="int" >        4       12       13       14       19 </v>
   <v type="int" >        4       12       14       19       20 </v>
   <v type="int" >        4        3        4       10       13 </v>
   <v type="int" >        4        4       10       12       13 </v>
   <v type="int" >       12        4       12       13       14 </v>
   <v type="int" >       12        3        4        7       13 </v>
   <v type="int" >        8        4        7        7       13 </v>
   <v type="int" >       12        4        7       13       14 </v>
   <v type="int" >        4        4       12       14       14 </v>
   <v type="int" >        4       12       14       14       20 </v>
   <v type="int" >        4       14       14       20       22 </v>
   <v type="int" >        4       12       13       15       20 </v>
   <v type="int" >        4       12       14       15       20 </v>
   <v type="int" >        8       14       15       20       22 </v>
   <v type="int" >       12       13       15       20       21 </v>
   <v type="int" >       12       15       20       21       22 </v>
   <v type="int" >        4       15       20       22       22 </v>
   <v type="int" >        4       13       13       14       21 </v>
   <v type="int" >       12       13       14       15       21 </v>
   <v type="int" >       16       14       15       21       22 </v>
   <v type="int" >        8       13       14       20       21 </v>
   <v type="int" >        4       14       20       20       21 </v>
   <v type="int" >       12       14       20       21       22 </v>
   <v type="int" >        4       12       12       13       20 </v>
   <v type="int" >        8       12       13       14       20 </v>
   <v type="int" >        8       12       14       20       20 </v>
   <v type="int" >        8       12       12       14       20 </v>
   <v type="int" >        4       12       13       20       20 </v>
   <v type="int" >       16        3        4       12       14 </v>
   <v type="int" >        8        3       12       12       14 </v>
   <v type="int" >        8        3       12       13       14 </v>
   <v type="int" >       16        3        4        7       14 </v>
   <v type="int" >        4        3        6        7       14 </v>
   <v type="int" >        4        3        6       13       14 </v>
   <v type="int" >        8       14       15       15       22 </v>
   <v type="int" >        8       15       15       22       22 </v>
   <v type="int" >        8       15       21       22       22 </v>
   <v type="int" >       12       13       14       15       22 </v>
   <v type="int" >        4       13       15       15       22 </v>
   <v type="int" >        8       13       15       21       22 </v>
   <v type="int" >       12       13       14       20       22 </v>
   <v type="int" >        4       13       19       20       22 </v>
   <v type="int" >        4       13       19       21       22 </v>
   <v type="int" >        4       10       12       14       20 </v>
   <v type="int" >        4       10       13       14       20 </v>
   <v type="int" >        8       10       13       19       20 </v>
   <v type="int" >        8       10       12       13       20 </v>
   <v type="int" >        4       10       11       13       20 </v>
   <v type="int" >        4       10       11       19       20 </v>
   <v type="int" >        4        2        3       12       13 </v>
   <v type="int" >        4        2       10       12       13 </v>
   <v type="int" >        8        2       10       11       13 </v>
   <v type="int" >       12        2        3        6       13 </v>
   <v type="int" >        4        2        2        6       13 </v>
   <v type="int" >        4        2        2       11       13 </v>
   <v type="int" >        4       11       13       15       21 </v>
   <v type="int" >        8       11       13       19       21 </v>
   <v type="int" >        4       11       18       19       21 </v>
   <v type="int" >        4        8       10       13       19 </v>
   <v type="int" >        4        8       11       13       19 </v>
   <v type="int" >        8        8       11       18       19 </v>
   <v type="int" >        8        8       10       11       19 </v>
   <v type="int" >        4        8        8       11       19 </v>
   <v type="int" >        4        8        8       18       19 </v>
   <v type="int" >        4        1        2       10       11 </v>
   <v type="int" >        4        1        8       10       11 </v>
   <v type="int" >        8        1        8        8       11 </v>
   <v type="int" >        8        1        2        2       11 </v>
   <v type="int" >       12        1        2        8       11 </v>
   <v type="int" >        4        5        8       11       18 </v>
   <v type="int" >        4        5        8        8       18 </v>
   <v type="int" >        4        1        5        8       18 </v>
   <v type="int" >        4        5        5        8        8 </v>
   <v type="int" >       12        1        5        5        8 </v>
   <v type="int" >        6        1        1        5        5 </v>
   <v type="int" >        8        1        1        5        8 </v>
   <v type="int" >        4        1        1        2        8 </v>
   <v type="int" >        4        2        3        6       16 </v>
   <v type="int" >        4        3        7       16       17 </v>
   <v type="int" >       12        7       16       17       17 </v>
   <v type="int" >        8        7       17       17       17 </v>
   <v type="int" >       12        7        7        9       16 </v>
   <v type="int" >        4        6        6        7        7 </v>
   <v type="int" >       16        3        6        7       13 </v>
   <v type="int" >       12        6        7        7       13 </v>
   <v type="int" >        4        3        6        6       11 </v>
   <v type="int" >       12        3        6       11       13 </v>
   <v type="int" >       12        2        3       10       11 </v>
   <v type="int" >        4        3       10       11       19 </v>
   <v type="int" >        4        3       11       13       19 </v>
   <v type="int" >        4        2        8       10       18 </v>
   <v type="int" >        4        2       10       11       18 </v>
   <v type="int" >        4       10       18       19       19 </v>
   <v type="int" >        4        8        8       11       11 </v>
   <v type="int" >        4        8       10       11       11 </v>
   <v type="int" >        4       10       11       11       13 </v>
   <v type="int" >        4       11       11       13       19 </v>
   <v type="int" >        4        2        6        8       10 </v>
   <v type="int" >        4        6        8       10       11 </v>
   <v type="int" >       12        6       10       11       13 </v>
   <v type="int" >        8        2        3        6       10 </v>
   <v type="int" >        4        3        6        7       10 </v>
   <v type="int" >        4        6        7       10       13 </v>
   <v type="int" >        4       16       17       17       17 </v>
   <v type="int" >        4       17       17       17       17 </v>
   <v type="int" >        4        9       17       17       17 </v>
   <v type="int" >        8        7        7       15       17 </v>
   <v type="int" >        8        7        9       15       17 </v>
   <v type="int" >        4        6        7       13       16 </v>
   <v type="int" >        4        7        7       13       16 </v>
   <v type="int" >       12        7        7       13       15 </v>
   <v type="int" >        8        6        7       13       13 </v>
   <v type="int" >        4        7       13       13       21 </v>
   <v type="int" >        4        7       13       15       21 </v>
   <v type="int" >        4        6       11       13       19 </v>
   <v type="int" >        4        6       13       13       19 </v>
   <v type="int" >        4       13       19       19       23 </v>
   <v type="int" >        4       13       19       21       23 </v>
   <v type="int" >        4       11       18       19       19 </v>
   <v type="int" >        4       11       19       19       19 </v>
   <v type="int" >        4       19       19       19       23 </v>
   <v type="int" >        4       18       19       19       19 </v>
   <v type="int" >        4       19       19       19       21 </v>
   <v type="int" >        4       19       19       21       23 </v>
   <v type="int" >        4       11       13       18       19 </v>
   <v type="int" >        4       13       18       19       19 </v>
   <v type="int" >        8       13       19       19       21 </v>
   <v type="int" >       12       11       13       13       19 </v>
   <v type="int" >        4       13       13       15       19 </v>
   <v type="int" >        4       13       15       19       21 </v>
   <v type="int" >        4        6        7       11       13 </v>
   <v type="int" >        4        7       11       13       13 </v>
   <v type="int" >        8        7       13       13       15 </v>
   <v type="int" >        4        7        7        9       13 </v>
   <v type="int" >        4        7        9       13       15 </v>
   <v type="int" >        4        7        9       14       17 </v>
   <v type="int" >       12        7        9       14       15 </v>
   <v type="int" >        4        9       14       15       22 </v>
   <v type="int" >        4        7       13       15       20 </v>
   <v type="int" >        4        7       14       15       20 </v>
   <v type="int" >        4       15       20       21       24 </v>
   <v type="int" >        4       15       20       22       24 </v>
   <v type="int" >        4       13       19       21       21 </v>
   <v type="int" >        4       13       20       21       21 </v>
   <v type="int" >        4       20       21       21       24 </v>
   <v type="int" >        8       19       21       21       23 </v>
   <v type="int" >        8       21       21       23       24 </v>
   <v type="int" >        4       21       21       24       24 </v>
   <v type="int" >        4       19       19       20       23 </v>
   <v type="int" >       12       19       20       21       23 </v>
   <v type="int" >       12       20       21       23       24 </v>
   <v type="int" >        4       20       21       22       23 </v>
   <v type="int" >        4       20       22       23       24 </v>
   <v type="int" >        4       13       14       19       21 </v>
   <v type="int" >        4       14       19       20       21 </v>
   <v type="int" >        4       14       15       15       21 </v>
   <v type="int" >       16        7       13       14       15 </v>
   <v type="int" >        8        7       14       15       15 </v>
   <v type="int" >       16        7        7        9       15 </v>
   <v type="int" >        4        7        7       15       15 </v>
   <v type="int" >        4       14       20       22       22 </v>
   <v type="int" >        8       20       22       22       24 </v>
   <v type="int" >       16       22       22       24       25 </v>
   <v type="int" >       16       20       21       22       24 </v>
   <v type="int" >        8       21       22       24       24 </v>
   <v type="int" >        4       22       24       24       24 </v>
   <v type="int" >       16       22       24       24       25 </v>
   <v type="int" >        4       20       20       21       24 </v>
   <v type="int" >       12       20       22       24       24 </v>
   <v type="int" >        8       20       20       22       24 </v>
   <v type="int" >        4       20       21       24       24 </v>
   <v type="int" >        4       13       20       20       22 </v>
   <v type="int" >        8       13       20       21       22 </v>
   <v type="int" >        4       13       13       15       22 </v>
   <v type="int" >        4       13       13       21       22 </v>
   <v type="int" >        4        6        7       14       15 </v>
   <v type="int" >        4        6       13       14       15 </v>
   <v type="int" >        4        6       13       13       15 </v>
   <v type="int" >        4        6        7        7       15 </v>
   <v type="int" >        4        3        6        7       15 </v>
   <v type="int" >        4        3        6       13       15 </v>
   <v type="int" >        8       21       22       22       25 </v>
   <v type="int" >       12       21       22       24       25 </v>
   <v type="int" >        4       21       23       24       25 </v>
   <v type="int" >        4       19       20       22       24 </v>
   <v type="int" >        4       19       21       22       24 </v>
   <v type="int" >        8       19       21       23       24 </v>
   <v type="int" >        8       19       20       21       24 </v>
   <v type="int" >        4       19       19       21       24 </v>
   <v type="int" >        4       19       19       23       24 </v>
   <v type="int" >        4       11       13       20       21 </v>
   <v type="int" >        4       11       19       20       21 </v>
   <v type="int" >        4       11       19       19       21 </v>
   <v type="int" >        4       11       13       13       21 </v>
   <v type="int" >        4       10       11       13       21 </v>
   <v type="int" >        4       10       11       19       21 </v>
   <v type="int" >        4        2        6       13       13 </v>
   <v type="int" >        4        2       11       13       13 </v>
   <v type="int" >       12        2        3       10       13 </v>
   <v type="int" >        4        2       10       10       13 </v>
   <v type="int" >        4       18       19       21       23 </v>
   <v type="int" >        4       18       19       19       23 </v>
   <v type="int" >        4       11       18       19       23 </v>
   <v type="int" >        4        8       11       19       19 </v>
   <v type="int" >        4        8       18       19       19 </v>
   <v type="int" >        4        2        8       10       19 </v>
   <v type="int" >        4        2        8       11       19 </v>
   <v type="int" >       16        2        8       10       11 </v>
   <v type="int" >        4        8        8       10       11 </v>
   <v type="int" >       12        2        8        8       10 </v>
   <v type="int" >        8        2        8       10       10 </v>
   <v type="int" >        4        8       10       10       11 </v>
   <v type="int" >        4        1        8       11       18 </v>
   <v type="int" >        4        2        8        8        8 </v>
   <v type="int" >        8        2        2        8       10 </v>
   <v type="int" >        4        2        2        3       10 </v>
   <v type="int" >        4        3        4        7       17 </v>
   <v type="int" >        4        4        7       16       17 </v>
   <v type="int" >        4        7        7        7        9 </v>
   <v type="int" >        4        4        7        7       14 </v>
   <v type="int" >        4        7        7        7       14 </v>
   <v type="int" >       12        3        4       12       13 </v>
   <v type="int" >        4        4       12       13       20 </v>
   <v type="int" >        4        4       13       14       20 </v>
   <v type="int" >        4        3       10       12       19 </v>
   <v type="int" >        4        3       12       13       19 </v>
   <v type="int" >        4       12       13       19       21 </v>
   <v type="int" >        4       12       19       20       21 </v>
   <v type="int" >        4       10       13       19       19 </v>
   <v type="int" >        8       13       13       19       20 </v>
   <v type="int" >        4       10       11       13       13 </v>
   <v type="int" >        4       10       12       13       13 </v>
   <v type="int" >        4       12       13       13       14 </v>
   <v type="int" >        4       13       13       14       20 </v>
   <v type="int" >        4        3        7       10       12 </v>
   <v type="int" >        4        7       10       12       13 </v>
   <v type="int" >        8        7       12       13       14 </v>
   <v type="int" >        8        3        4        7       12 </v>
   <v type="int" >        4        7        7       12       14 </v>
   <v type="int" >        4        7        9       15       16 </v>
   <v type="int" >       12        7        9       15       15 </v>
   <v type="int" >        8        7        7       14       15 </v>
   <v type="int" >        4        7       14       15       22 </v>
   <v type="int" >        4        7       15       15       22 </v>
   <v type="int" >        4        7       13       14       21 </v>
   <v type="int" >        4        7       14       15       21 </v>
   <v type="int" >        4       14       20       21       24 </v>
   <v type="int" >        4       14       21       22       24 </v>
   <v type="int" >        4       13       19       20       23 </v>
   <v type="int" >        4       13       20       21       23 </v>
   <v type="int" >        4       20       23       24       24 </v>
   <v type="int" >        4       19       19       21       21 </v>
   <v type="int" >        4       19       20       21       21 </v>
   <v type="int" >        4       20       21       21       22 </v>
   <v type="int" >        4       21       21       22       24 </v>
   <v type="int" >        4       13       15       19       20 </v>
   <v type="int" >        4       15       19       20       21 </v>
   <v type="int" >        8       13       14       15       20 </v>
   <v type="int" >        4       14       15       15       20 </v>
   <v type="int" >        4       15       15       20       22 </v>
   <v type="int" >        4        7        9       13       14 </v>
   <v type="int" >        4        9       13       14       15 </v>
   <v type="int" >        8        9       14       15       15 </v>
   <v type="int" >        8        7        7        9       14 </v>
   <v type="int" >        4        9       15       15       22 </v>
   <v type="int" >        4       15       22       22       25 </v>
   <v type="int" >        4       15       21       22       24 </v>
   <v type="int" >        4       15       22       22       24 </v>
   <v type="int" >        8       22       24       24       26 </v>
   <v type="int" >        8       22       24       25       26 </v>
   <v type="int" >        4       21       23       24       24 </v>
   <v type="int" >        4       21       24       24       24 </v>
   <v type="int" >        8       24       24       24       26 </v>
   <v type="int" >        4       23       24       24       24 </v>
   <v type="int" >        4       24       24       24       25 </v>
   <v type="int" >       20       24       24       25       26 </v>
   <v type="int" >        4       21       22       23       24 </v>
   <v type="int" >        4       22       23       24       24 </v>
   <v type="int" >       12       21       22       22       24 </v>
   <v type="int" >        4       22       22       22       24 </v>
   <v type="int" >        4       15       15       21       22 </v>
   <v type="int" >        4       15       22       22       22 </v>
   <v type="int" >        4       15       15       15       22 </v>
   <v type="int" >        4       14       15       22       22 </v>
   <v type="int" >        4        7       15       15       15 </v>
   <v type="int" >        4        4        7        7       15 </v>
   <v type="int" >        4        4        7       14       15 </v>
   <v type="int" >        4       22       24       25       25 </v>
   <v type="int" >        8       24       25       25       26 </v>
   <v type="int" >        6       25       25       26       26 </v>
   <v type="int" >       12       24       25       26       26 </v>
   <v type="int" >        4       24       24       26       26 </v>
   <v type="int" >        8       21       24       24       25 </v>
   <v type="int" >        4       20       21       22       25 </v>
   <v type="int" >        4       20       21       24       25 </v>
   <v type="int" >        4       13       15       22       22 </v>
   <v type="int" >        4       13       21       22       22 </v>
   <v type="int" >        4       12       13       14       22 </v>
   <v type="int" >        4       12       13       20       22 </v>
   <v type="int" >        4        3        7       14       15 </v>
   <v type="int" >        4        3       13       14       15 </v>
   <v type="int" >        4       23       24       25       26 </v>
   <v type="int" >        4       23       24       24       26 </v>
   <v type="int" >        4       21       23       24       26 </v>
   <v type="int" >        4       19       21       24       24 </v>
   <v type="int" >        4       19       23       24       24 </v>
   <v type="int" >        4       13       19       20       24 </v>
   <v type="int" >        4       13       19       21       24 </v>
   <v type="int" >        4       10       13       20       21 </v>
   <v type="int" >        4       10       19       20       21 </v>
   <v type="int" >        4        3       10       12       20 </v>
   <v type="int" >        4        3       10       13       20 </v>
   <v type="int" >        8        3       10       12       13 </v>
   <v type="int" >        4       10       10       12       13 </v>
   <v type="int" >        8        3       10       10       12 </v>
   <v type="int" >        8        3       10       12       12 </v>
   <v type="int" >        4       10       12       12       13 </v>
   <v type="int" >        4       11       19       21       23 </v>
   <v type="int" >        4        6       11       13       21 </v>
   <v type="int" >        4        2       10       13       19 </v>
   <v type="int" >        4        2       11       13       19 </v>
   <v type="int" >        8        2        6       11       13 </v>
   <v type="int" >        4        2        6        6       13 </v>
   <v type="int" >        4        3       10       10       11 </v>
   <v type="int" >        4        3       11       13       13 </v>
   <v type="int" >        4        2        2        6       10 </v>
   <v type="int" >        4        6       10       12       13 </v>
   <v type="int" >        4        3        6       10       12 </v>
   <v type="int" >        4        2        3        3       10 </v>
   <v type="int" >        4        3        3       10       12 </v>
   <v type="int" >        4        3        3        4       12 </v>
   <v type="int" >        4        3        4        7       16 </v>
   <v type="int" >        4        6        7        7        7 </v>
   <v type="int" >        4        6        6        7       13 </v>
   <v type="int" >        8        3        7        7       14 </v>
   <v type="int" >        8        3        7       13       14 </v>
   <v type="int" >        4        3       12       14       20 </v>
   <v type="int" >        4        3       13       14       20 </v>
   <v type="int" >        4        4       12       12       20 </v>
   <v type="int" >        4        4       12       14       20 </v>
   <v type="int" >        4       12       14       20       22 </v>
   <v type="int" >        4       12       20       20       22 </v>
   <v type="int" >        4       12       13       14       21 </v>
   <v type="int" >        4       12       14       20       21 </v>
   <v type="int" >        4       14       21       22       22 </v>
   <v type="int" >        4       13       13       15       20 </v>
   <v type="int" >        4       14       15       20       20 </v>
   <v type="int" >        4       15       20       20       22 </v>
   <v type="int" >        4       12       13       14       14 </v>
   <v type="int" >        4       13       14       14       20 </v>
   <v type="int" >        2       14       14       20       20 </v>
   <v type="int" >        2       12       12       14       14 </v>
   <v type="int" >        8        4        7       12       12 </v>
   <v type="int" >        4        7       12       12       14 </v>
   <v type="int" >        4        3        6        7       12 </v>
   <v type="int" >        4        6        7       12       13 </v>
   <v type="int" >        4        6        7       15       16 </v>
   <v type="int" >        8        6        7       13       15 </v>
   <v type="int" >        4        6       13       15       21 </v>
   <v type="int" >        4        7       13       14       22 </v>
   <v type="int" >        4        7       13       15       22 </v>
   <v type="int" >        4       13       20       22       24 </v>
   <v type="int" >        4       13       21       22       24 </v>
   <v type="int" >        4       14       20       20       24 </v>
   <v type="int" >        4       14       20       22       24 </v>
   <v type="int" >        4       20       22       24       25 </v>
   <v type="int" >        4       20       24       24       25 </v>
   <v type="int" >        6       22       22       24       24 </v>
   <v type="int" >        4       20       21       22       22 </v>
   <v type="int" >        2       20       20       22       22 </v>
   <v type="int" >        4        7        7       13       14 </v>
   <v type="int" >        4        3        7       13       13 </v>
   <v type="int" >        4       15       21       22       25 </v>
   <v type="int" >        4       21       24       25       26 </v>
   <v type="int" >        4       24       26       26       26 </v>
   <v type="int" >        6       24       24       25       25 </v>
   <v type="int" >        4        4        7       13       15 </v>
   <v type="int" >        4        4       13       14       15 </v>
   <v type="int" >        8        4       12       12       13 </v>
   <v type="int" >        4       25       26       26       26 </v>
   <v type="int" >        2       26       26       26       26 </v>
   <v type="int" >        4        4       12       12       14 </v>
   <v type="int" >        4       12       12       12       14 </v>
   <v type="int" >        8        4       12       12       12 </v>
   <v type="int" >        4        3        4        4       12 </v>
   <v type="int" >        4        4        4       12       12 </v>
   <v type="int" >        4        1        5        8       11 </v>
   <v type="int" >        4        1        2        6       11 </v>
   <v type="int" >        4        2        8       10       13 </v>
   <v type="int" >        4        2        8       11       13 </v>
   <v type="int" >        4        2        3        7       13 </v>
   <v type="int" >        4        2        6        7       13 </v>
   <v type="int" >        4        3       10       12       14 </v>
   <v type="int" >        4        3       10       13       14 </v>
   <v type="int" >        4        3        4        6       13 </v>
   <v type="int" >        4        4        6        7       13 </v>
   <v type="int" >        4        3       10       11       12 </v>
   <v type="int" >        4        3       11       12       13 </v>
   <v type="int" >        4        2        2        3       11 </v>
   <v type="int" >        6        2        2        8        8 </v>
   <v type="int" >        6        1        1        8        8 </v>
   <v type="int" >        4        5        5        5        8 </v>
   <v type="int" >        4        6       11       13       15 </v>
   <v type="int" >        4        6        7        9       15 </v>
   <v type="int" >        4        7       13       15       15 </v>
   <v type="int" >        4        7        7        7       15 </v>
   <v type="int" >        4        7       13       13       14 </v>
   <v type="int" >        4        3        7        7       13 </v>
   <v type="int" >        4        6       10       13       13 </v>
   <v type="int" >        4        2        6       10       10 </v>
   <v type="int" >        4        3        6       10       10 </v>
   <v type="int" >        4        2        2       10       11 </v>
   <v type="int" >        2        2        2       10       10 </v>
   <v type="int" >        4        1        8        8       10 </v>
   <v type="int" >        4        1        2        8       10 </v>
   <v type="int" >        4        2        3        8       10 </v>
   <v type="int" >        4        3        8       10       10 </v>
   <v type="int" >        4        4        7        9       14 </v>
   <v type="int" >        4        7       12       13       15 </v>
   <v type="int" >        4        7       12       14       15 </v>
   <v type="int" >        4        3        7       12       12 </v>
   <v type="int" >        4        3        3       10       13 </v>
   <v type="int" >        4        3        3       12       13 </v>
   <v type="int" >        2        3        3       12       12 </v>
   <v type="int" >        2        3        3       10       10 </v>
   <v type="int" >        4        2       10       10       12 </v>
   <v type="int" >        4        2        3       10       12 </v>
   <v type="int" >        4        3        4       10       12 </v>
   <v type="int" >        4        4       10       12       12 </v>
   <v type="int" >        4        4        4       12       14 </v>
   <v type="int" >        4        3       12       12       12 </v>
   <v type="int" >        4        3        4       12       12 </v>
   <v type="int" >        4        1        5        5        5 </v>
   <v type="int" >        2        5        5        5        5 </v>
  </varray>
  <i name="volumeweight">      0.00032552 </i>
 </kpoints>
 <parameters>
  <separator name="general" >
   <i type="string" name="SYSTEM">Fe BCC</i>
   <i type="logical" name="LCOMPAT"> F  </i>
  </separator>
  <separator name="electronic" >
   <i type="string" name="PREC">accura</i>
   <i name="ENMAX">    400.00000000</i>
   <i name="ENAUG">    511.36800000</i>
   <i name="EDIFF">      0.00000100</i>
   <i type="int" name="IALGO">    38</i>
   <i type="int" name="IWAVPR">    10</i>
   <i type="int" name="NBANDS">    12</i>
   <i name="NELECT">      8.00000000</i>
   <i type="int" name="TURBO">     0</i>
   <i type="int" name="IRESTART">     0</i>
   <i type="int" name="NREBOOT">     0</i>
   <i type="int" name="NMIN">     0</i>
   <i name="EREF">      0.00000000</i>
   <separator name="electronic smearing" >
    <i type="int" name="ISMEAR">    -5</i>
    <i name="SIGMA">      0.20000000</i>
    <i name="KSPACING">      0.50000000</i>
    <i type="logical" name="KGAMMA"> T  </i>
   </separator>
   <separator name="electronic projectors" >
    <i type="logical" name="LREAL"> F  </i>
    <v name="ROPT">      0.00000000</v>
    <i type="int" name="LMAXPAW">  -100</i>
    <i type="int" name="LMAXMIX">     2</i>
    <i type="logical" name="NLSPLINE"> F  </i>
   </separator>
   <separator name="electronic startup" >
    <i type="int" name="ISTART">     0</i>
    <i type="int" name="ICHARG">     2</i>
    <i type="int" name="INIWAV">     1</i>
   </separator>
   <separator name="electronic spin" >
    <i type="int" name="ISPIN">     2</i>
    <i type="logical" name="LNONCOLLINEAR"> F  </i>
    <v name="MAGMOM">      4.00000000</v>
    <i name="NUPDOWN">     -1.00000000</i>
    <i type="logical" name="LSORBIT"> F  </i>
    <v name="SAXIS">      0.00000000      0.00000000      1.00000000</v>
    <i type="logical" name="LSPIRAL"> F  </i>
    <v name="QSPIRAL">      0.00000000      0.00000000      0.00000000</v>
    <i type="logical" name="LZEROZ"> F  </i>
   </separator>
   <separator name="electronic exchange-correlation" >
    <i type="logical" name="LASPH"> F  </i>
    <i type="logical" name="LMETAGGA"> F  </i>
   </separator>
   <separator name="electronic convergence" >
    <i type="int" name="NELM">    60</i>
    <i type="int" name="NELMDL">    -5</i>
    <i type="int" name="NELMIN">     2</i>
    <i name="ENINI">    400.00000000</i>
    <separator name="electronic convergence detail" >
     <i type="logical" name="LDIAG"> T  </i>
     <i type="logical" name="LSUBROT"> F  </i>
     <i name="WEIMIN">      0.00000000</i>
     <i name="EBREAK">      0.00000002</i>
     <i name="DEPER">      0.30000000</i>
     <i type="int" name="NRMM">     4</i>
     <i name="TIME">      0.40000000</i>
    </separator>
   </separator>
   <separator name="electronic mixer" >
    <i name="AMIX">      0.40000000</i>
    <i name="BMIX">      1.00000000</i>
    <i name="AMIN">      0.10000000</i>
    <i name="AMIX_MAG">      1.60000000</i>
    <i name="BMIX_MAG">      1.00000000</i>
    <separator name="electronic mixer details" >
     <i type="int" name="IMIX">     4</i>
     <i type="logical" name="MIXFIRST"> F  </i>
     <i type="int" name="MAXMIX">   -45</i>
     <i name="WC">    100.00000000</i>
     <i type="int" name="INIMIX">     1</i>
     <i type="int" name="MIXPRE">     1</i>
     <i type="int" name="MREMOVE">     5</i>
    </separator>
   </separator>
   <separator name="electronic dipolcorrection" >
    <i type="logical" name="LDIPOL"> F  </i>
    <i type="logical" name="LMONO"> F  </i>
    <i type="int" name="IDIPOL">     0</i>
    <i name="EPSILON">      1.00000000</i>
    <v name="DIPOL">   -100.00000000   -100.00000000   -100.00000000</v>
    <i name="EFIELD">      0.00000000</i>
   </separator>
  </separator>
  <separator name="grids" >
   <i type="int" name="NGX">    18</i>
   <i type="int" name="NGY">    18</i>
   <i type="int" name="NGZ">    18</i>
   <i type="int" name="NGXF">    36</i>
   <i type="int" name="NGYF">    36</i>
   <i type="int" name="NGZF">    36</i>
   <i type="logical" name="ADDGRID"> F  </i>
  </separator>
  <separator name="ionic" >
   <i type="int" name="NSW">     0</i>
   <i type="int" name="IBRION">    -1</i>
   <i type="int" name="ISIF">     2</i>
   <i name="PSTRESS">      0.00000000</i>
   <i name="EDIFFG">      0.00001000</i>
   <i type="int" name="NFREE">     0</i>
   <i name="POTIM">      0.50000000</i>
   <i name="SMASS">     -3.00000000</i>
   <i name="SCALEE">      1.00000000</i>
  </separator>
  <separator name="ionic md" >
   <i name="TEBEG">      0.00010000</i>
   <i name="TEEND">      0.00010000</i>
   <i type="int" name="NBLOCK">     1</i>
   <i type="int" name="KBLOCK">     1</i>
   <i type="int" name="NPACO">   256</i>
   <i name="APACO">     16.00000000</i>
  </separator>
  <separator name="symmetry" >
   <i type="int" name="ISYM">     2</i>
   <i name="SYMPREC">      0.00001000</i>
  </separator>
  <separator name="dos" >
   <i type="logical" name="LORBIT"> F  </i>
   <v name="RWIGS">     -1.00000000</v>
   <i type="int" name="NEDOS">   301</i>
   <i name="EMIN">     10.00000000</i>
   <i name="EMAX">    -10.00000000</i>
   <i name="EFERMI">      0.00000000</i>
  </separator>
  <separator name="writing" >
   <i type="int" name="NWRITE">     2</i>
   <i type="logical" name="LWAVE"> T  </i>
   <i type="logical" name="LCHARG"> T  </i>
   <i type="logical" name="LPARD"> F  </i>
   <i type="logical" name="LVTOT"> F  </i>
   <i type="logical" name="LVHAR"> F  </i>
   <i type="logical" name="LELF"> F  </i>
   <i type="logical" name="LOPTICS"> F  </i>
   <v name="STM">      0.00000000      0.00000000      0.00000000      0.00000000      0.00000000      0.00000000      0.00000000</v>
  </separator>
  <separator name="performance" >
   <i type="int" name="NPAR">     4</i>
   <i type="int" name="NSIM">     4</i>
   <i type="int" name="NBLK">    -1</i>
   <i type="logical" name="LPLANE"> T  </i>
   <i type="logical" name="LSCALAPACK"> F  </i>
   <i type="logical" name="LSCAAWARE"> F  </i>
   <i type="logical" name="LSCALU"> F  </i>
   <i type="logical" name="LASYNC"> F  </i>
   <i type="logical" name="LORBITALREAL"> F  </i>
  </separator>
  <separator name="miscellaneous" >
   <i type="int" name="IDIOT">     3</i>
   <i type="logical" name="LMUSIC"> F  </i>
   <v name="POMASS">     55.84700000</v>
   <v name="DARWINR">      0.00000000</v>
   <v name="DARWINV">      1.00000000</v>
   <i type="logical" name="LCORR"> T  </i>
  </separator>
  <i type="logical" name="GGA_COMPAT"> T  </i>
  <i type="logical" name="LBERRY"> F  </i>
  <i type="int" name="ICORELEVEL">     0</i>
  <i type="logical" name="LDAU"> F  </i>
  <i type="int" name="I_CONSTRAINED_M">     0</i>
  <separator name="electronic exchange-correlation" >
   <i type="string" name="GGA">--</i>
   <i type="int" name="VOSKOWN">     0</i>
   <i type="logical" name="LHFCALC"> F  </i>
   <i type="string" name="PRECFOCK"></i>
   <i type="logical" name="LSYMGRAD"> F  </i>
   <i type="logical" name="LHFONE"> F  </i>
   <i type="logical" name="LRHFCALC"> F  </i>
   <i type="logical" name="LTHOMAS"> F  </i>
   <i type="logical" name="LMODELHF"> F  </i>
   <i name="ENCUT4O">     -1.00000000</i>
   <i type="int" name="EXXOEP">     0</i>
   <i type="int" name="FOURORBIT">     0</i>
   <i name="AEXX">      0.00000000</i>
   <i name="HFALPHA">      0.00000000</i>
   <i name="MCALPHA">      0.00000000</i>
   <i name="ALDAX">      1.00000000</i>
   <i name="AGGAX">      1.00000000</i>
   <i name="ALDAC">      1.00000000</i>
   <i name="AGGAC">      1.00000000</i>
   <i type="int" name="NKREDX">     1</i>
   <i type="int" name="NKREDY">     1</i>
   <i type="int" name="NKREDZ">     1</i>
   <i type="logical" name="SHIFTRED"> F  </i>
   <i type="logical" name="ODDONLY"> F  </i>
   <i type="logical" name="EVENONLY"> F  </i>
   <i type="int" name="LMAXFOCK">     0</i>
   <i type="int" name="NMAXFOCKAE">     0</i>
   <i type="logical" name="LFOCKAEDFT"> F  </i>
   <i name="HFSCREEN">      0.00000000</i>
   <i name="HFSCREENC">      0.00000000</i>
   <i type="int" name="NBANDSGWLOW">     0</i>
  </separator>
  <separator name="vdW DFT" >
   <i type="logical" name="LUSE_VDW"> F  </i>
   <i name="Zab_VDW">     -0.84910000</i>
   <i name="PARAM1">      0.12340000</i>
   <i name="PARAM2">      1.00000000</i>
   <i name="PARAM3">      0.00000000</i>
  </separator>
  <separator name="model GW" >
   <i type="int" name="MODEL_GW">     0</i>
   <i name="MODEL_EPS0">      8.10000000</i>
   <i name="MODEL_ALPHA">      1.00000000</i>
  </separator>
  <separator name="linear response parameters" >
   <i type="logical" name="LEPSILON"> F  </i>
   <i type="logical" name="LRPA"> F  </i>
   <i type="logical" name="LNABLA"> F  </i>
   <i type="logical" name="LVEL"> F  </i>
   <i type="int" name="KINTER">     0</i>
   <i name="CSHIFT">      0.10000000</i>
   <i name="OMEGAMAX">     -1.00000000</i>
   <i name="DEG_THRESHOLD">      0.00200000</i>
  </separator>
  <separator name="orbital magnetization" >
   <i type="logical" name="NUCIND"> F  </i>
   <v name="MAGPOS">      0.00000000      0.00000000      0.00000000</v>
   <i type="logical" name="LNICSALL"> T  </i>
   <i type="logical" name="ORBITALMAG"> F  </i>
   <i type="logical" name="LMAGBLOCH"> F  </i>
   <i type="logical" name="LCHIMAG"> F  </i>
   <i type="logical" name="LGAUGE"> T  </i>
   <i type="int" name="MAGATOM">     0</i>
   <v name="MAGDIPOL">      0.00000000      0.00000000      0.00000000</v>
   <v name="AVECCONST">      0.00000000      0.00000000      0.00000000</v>
  </separator>
  <separator name="response functions" >
   <i type="logical" name="LADDER"> F  </i>
   <i type="logical" name="LFXC"> F  </i>
   <i type="logical" name="LHARTREE"> T  </i>
   <i type="int" name="IBSE">     0</i>
   <v type="int" name="KPOINT">    -1     0     0     0</v>
   <i type="logical" name="LTCTE"> F  </i>
   <i type="logical" name="LTETE"> F  </i>
   <i type="logical" name="LTRIPLET"> F  </i>
   <i type="logical" name="LFXCEPS"> F  </i>
   <i type="logical" name="LFXHEG"> F  </i>
   <i type="int" name="NATURALO">     0</i>
   <i type="logical" name="L2ORDER"> F  </i>
   <i type="logical" name="LUSEW"> F  </i>
   <i name="ENCUTGW">     -2.00000000</i>
   <i name="ENCUTGWSOFT">     -2.00000000</i>
   <i name="ENCUTLF">     -1.00000000</i>
   <i type="int" name="LMAXMP2">    -1</i>
   <i name="SCISSOR">      0.00000000</i>
   <i type="int" name="NOMEGA">     0</i>
   <i type="int" name="NOMEGAR">     0</i>
   <i type="int" name="NBANDSGW">    -1</i>
   <i type="int" name="NBANDSO">    -1</i>
   <i type="int" name="NBANDSV">    -1</i>
   <i type="int" name="NELM">     1</i>
   <i type="int" name="NELMHF">     1</i>
   <i type="int" name="DIM">     3</i>
   <i type="int" name="ANTIRES">     0</i>
   <i name="OMEGAMAX">    -30.00000000</i>
   <i name="OMEGAMIN">    -30.00000000</i>
   <i name="OMEGATL">   -200.00000000</i>
   <i type="int" name="OMEGAGRID">     0</i>
   <i name="CSHIFT">     -0.10000000</i>
   <i type="logical" name="SELFENERGY"> F  </i>
   <i type="logical" name="LSPECTRAL"> F  </i>
   <i type="logical" name="LSPECTRALGW"> F  </i>
   <i type="logical" name="LSINGLES"> F  </i>
   <i type="logical" name="LFERMIGW"> F  </i>
   <i type="logical" name="ODDONLYGW"> F  </i>
   <i type="logical" name="EVENONLYGW"> F  </i>
   <i type="int" name="NKREDLFX">     1</i>
   <i type="int" name="NKREDLFY">     1</i>
   <i type="int" name="NKREDLFZ">     1</i>
   <i type="int" name="MAXMEM">  1800</i>
   <i type="int" name="TELESCOPE">     0</i>
   <i type="int" name="TAUPAR">     1</i>
   <i type="int" name="OMEGAPAR">    -1</i>
   <i name="LAMBDA">      1.00000000</i>
  </separator>
  <separator name="External order field" >
   <i name="OFIELD_KAPPA">      0.00000000</i>
   <v name="OFIELD_K">      0.00000000      0.00000000      0.00000000</v>
   <i name="OFIELD_Q6_NEAR">      0.00000000</i>
   <i name="OFIELD_Q6_FAR">      0.00000000</i>
   <i name="OFIELD_A">      0.00000000</i>
  </separator>
 </parameters>
 <atominfo>
  <atoms>       1 </atoms>
  <types>       1 </types>
  <array name="atoms" >
   <dimension dim="1">ion</dimension>
   <field type="string">element</field>
   <field type="int">atomtype</field>
   <set>
    <rc><c>Fe</c><c>   1</c></rc>
   </set>
  </array>
  <array name="atomtypes" >
   <dimension dim="1">type</dimension>
   <field type="int">atomspertype</field>
   <field type="string">element</field>
   <field>mass</field>
   <field>valence</field>
   <field type="string">pseudopotential</field>
   <set>
    <rc><c>   1</c><c>Fe</c><c>     55.84700000</c><c>      8.00000000</c><c>  PAW Fe 03Mar1998                      </c></rc>
   </set>
  </array>
 </atominfo>
 <structure name="initialpos" >
  <crystal>
   <varray name="basis" >
    <v>      -1.50000000       1.50000000       1.50000000 </v>
    <v>       1.50000000      -1.50000000       1.50000000 </v>
    <v>       1.50000000       1.50000000      -1.50000000 </v>
   </varray>
   <i name="volume">     13.50000000 </i>
   <varray name="rec_basis" >
    <v>       0.00000000       0.33333333       0.33333333 </v>
    <v>       0.33333333       0.00000000       0.33333333 </v>
    <v>       0.33333333       0.33333333       0.00000000 </v>
   </varray>
  </crystal>
  <varray name="positions" >
   <v>       0.00000000       0.00000000       0.00000000 </v>
  </varray>
 </structure>
 <calculation>
  <scstep>
   <time name="dav">    0.88    0.48</time>
   <time name="total">    1.01    0.55</time>
   <energy>
    <i name="alphaZ">     49.61217481 </i>
    <i name="ewald">   -558.97799591 </i>
    <i name="hartreedc">   -124.49146800 </i>
    <i name="XCdc">      6.07484156 </i>
    <i name="pawpsdc">    552.76102510 </i>
    <i name="pawaedc">   -562.19386350 </i>
    <i name="eentropy">      0.00000000 </i>
    <i name="bandstr">     56.43057152 </i>
    <i name="atom">    597.35192723 </i>
    <i name="e_fr_energy">     16.56721281 </i>
    <i name="e_wo_entrp">     16.56721281 </i>
    <i name="e_0_energy">     16.56721281 </i>
   </energy>
  </scstep>
  <scstep>
   <time name="dav">    0.78    0.39</time>
   <time name="total">    0.90    0.45</time>
   <energy>
    <i name="e_fr_energy">     -8.94414203 </i>
    <i name="e_wo_entrp">     -8.94414203 </i>
    <i name="e_0_energy">     -8.94414203 </i>
   </energy>
  </scstep>
  <scstep>
   <time name="dav">    0.86    0.43</time>
   <time name="total">    0.98    0.49</time>
   <energy>
    <i name="e_fr_energy">     -9.60186570 </i>
    <i name="e_wo_entrp">     -9.60186570 </i>
    <i name="e_0_energy">     -9.60186570 </i>
   </energy>
  </scstep>
  <scstep>
   <time name="dav">    0.85    0.43</time>
   <time name="total">    0.95    0.48</time>
   <energy>
    <i name="e_fr_energy">     -9.60457553 </i>
    <i name="e_wo_entrp">     -9.60457553 </i>
    <i name="e_0_energy">     -9.60457553 </i>
   </energy>
  </scstep>
  <scstep>
   <time name="dav">    1.24    0.62</time>
   <time name="total">    1.40    0.70</time>
   <energy>
    <i name="e_fr_energy">     -9.60459780 </i>
    <i name="e_wo_entrp">     -9.60459780 </i>
    <i name="e_0_energy">     -9.60459780 </i>
   </energy>
  </scstep>
  <scstep>
   <time name="dav">    0.83    0.41</time>
   <time name="total">    1.01    0.51</time>
   <energy>
    <i name="e_fr_energy">     -8.99902441 </i>
    <i name="e_wo_entrp">     -8.99902441 </i>
    <i name="e_0_energy">     -8.99902441 </i>
   </energy>
  </scstep>
  <scstep>
   <time name="dav">    0.85    0.42</time>
   <time name="total">    1.03    0.52</time>
   <energy>
    <i name="e_fr_energy">     -8.80203570 </i>
    <i name="e_wo_entrp">     -8.80203570 </i>
    <i name="e_0_energy">     -8.80203570 </i>
   </energy>
  </scstep>
  <scstep>
   <time name="dav">    0.95    0.47</time>
   <time name="total">    1.15    0.58</time>
   <energy>
    <i name="e_fr_energy">     -8.79263353 </i>
    <i name="e_wo_entrp">     -8.79263353 </i>
    <i name="e_0_energy">     -8.79263353 </i>
   </energy>
  </scstep>
  <scstep>
   <time name="dav">    1.26    0.63</time>
   <time name="total">    1.49    0.74</time>
   <energy>
    <i name="e_fr_energy">     -8.78539892 </i>
    <i name="e_wo_entrp">     -8.78539892 </i>
    <i name="e_0_energy">     -8.78539892 </i>
   </energy>
  </scstep>
  <scstep>
   <time name="dav">    0.87    0.44</time>
   <time name="total">    1.06    0.53</time>
   <energy>
    <i name="e_fr_energy">     -8.78504511 </i>
    <i name="e_wo_entrp">     -8.78504511 </i>
    <i name="e_0_energy">     -8.78504511 </i>
   </energy>
  </scstep>
  <scstep>
   <time name="dav">    0.97    0.49</time>
   <time name="total">    1.16    0.58</time>
   <energy>
    <i name="e_fr_energy">     -8.78508402 </i>
    <i name="e_wo_entrp">     -8.78508402 </i>
    <i name="e_0_energy">     -8.78508402 </i>
   </energy>
  </scstep>
  <scstep>
   <time name="dav">    1.08    0.54</time>
   <time name="total">    1.26    0.63</time>
   <energy>
    <i name="e_fr_energy">     -8.78509499 </i>
    <i name="e_wo_entrp">     -8.78509499 </i>
    <i name="e_0_energy">     -8.78509499 </i>
   </energy>
  </scstep>
  <scstep>
   <time name="dav">    0.49    0.24</time>
   <time name="total">    0.68    0.34</time>
   <energy>
    <i name="e_fr_energy">     -8.78508018 </i>
    <i name="e_wo_entrp">     -8.78508018 </i>
    <i name="e_0_energy">     -8.78508018 </i>
   </energy>
  </scstep>
  <scstep>
   <time name="dav">    0.50    0.25</time>
   <time name="total">    0.68    0.34</time>
   <energy>
    <i name="e_fr_energy">     -8.78508265 </i>
    <i name="e_wo_entrp">     -8.78508265 </i>
    <i name="e_0_energy">     -8.78508265 </i>
   </energy>
  </scstep>
  <scstep>
   <time name="dav">    0.48    0.24</time>
   <time name="total">    0.62    0.31</time>
   <energy>
    <i name="alphaZ">     49.61217481 </i>
    <i name="ewald">   -558.97799591 </i>
    <i name="hartreedc">   -108.74163429 </i>
    <i name="XCdc">      4.57973679 </i>
    <i name="pawpsdc">    653.61065473 </i>
    <i name="pawaedc">   -663.78372177 </i>
    <i name="eentropy">      0.00000000 </i>
    <i name="bandstr">     17.56377605 </i>
    <i name="atom">    597.35192723 </i>
    <i name="e_fr_energy">     -8.78508236 </i>
    <i name="e_wo_entrp">     -8.78508236 </i>
    <i name="e_0_energy">     -8.78508236 </i>
   </energy>
  </scstep>
  <structure>
   <crystal>
    <varray name="basis" >
     <v>      -1.50000000       1.50000000       1.50000000 </v>
     <v>       1.50000000      -1.50000000       1.50000000 </v>
     <v>       1.50000000       1.50000000      -1.50000000 </v>
    </varray>
    <i name="volume">     13.50000000 </i>
    <varray name="rec_basis" >
     <v>       0.00000000       0.33333333       0.33333333 </v>
     <v>       0.33333333       0.00000000       0.33333333 </v>
     <v>       0.33333333       0.33333333       0.00000000 </v>
    </varray>
   </crystal>
   <varray name="positions" >
    <v>       0.00000000       0.00000000       0.00000000 </v>
   </varray>
  </structure>
  <varray name="forces" >
   <v>       0.00000000       0.00000000       0.00000000 </v>
  </varray>
  <varray name="stress" >
   <v>    -341.32962771       0.00000000      -0.00000000 </v>
   <v>       0.00000000    -341.32962771      -0.00000000 </v>
   <v>       0.00000000       0.00000000    -341.32962771 </v>
  </varray>
  <energy>
   <i name="e_fr_energy">     -8.78508236 </i>
   <i name="e_wo_entrp">     -8.78508236 </i>
   <i name="e_0_energy">      0.00000000 </i>
  </energy>
  <time name="totalsc">   16.00    8.17</time>
  <eigenvalues>
   <array>
    <dimension dim="1">band</dimension>
    <dimension dim="2">kpoint</dimension>
    <dimension dim="3">spin</dimension>
    <field>eigene</field>
    <field>occ</field>
    <set>
     <set comment="spin 1">
      <set comment="kpoint 1">
       <r>   -2.6924    1.0000 </r>
       <r>    1.8622    1.0000 </r>
       <r>    1.8622    1.0000 </r>
       <r>    2.4899    1.0000 </r>
       <r>    3.0191    1.0000 </r>
       <r>    3.0191    1.0027 </r>
       <r>   23.4183    0.0000 </r>
       <r>   23.4183    0.0000 </r>
       <r>   25.8479    0.0000 </r>
       <r>   28.0169    0.0000 </r>
       <r>   31.5406    0.0000 </r>
       <r>   31.5406    0.0000 </r>
      </set>
      <set comment="kpoint 2">
       <r>   -1.2430    1.0000 </r>
       <r>    1.5426    1.0000 </r>
       <r>    1.7149    1.0000 </r>
       <r>    2.9582    1.0000 </r>
       <r>    3.1099    1.0000 </r>
       <r>    3.2964    0.9578 </r>
       <r>   18.1072    0.0000 </r>
       <r>   21.1805    0.0000 </r>
       <r>   22.5062    0.0000 </r>
       <r>   28.0447    0.0000 </r>
       <r>   30.8777    0.0000 </r>
       <r>   32.3629    0.0000 </r>
      </set>
      <set comment="kpoint 3">
       <r>   -0.0300    1.0000 </r>
       <r>    1.2651    1.0000 </r>
       <r>    2.3082    1.0000 </r>
       <r>    3.0552    1.0000 </r>
       <r>    3.1821    1.0088 </r>
       <r>    4.4616    0.0751 </r>
       <r>   12.9513    0.0000 </r>
       <r>   19.6432    0.0000 </r>
       <r>   20.4838    0.0000 </r>
       <r>   27.3325    0.0000 </r>
       <r>   30.2339    0.0000 </r>
       <r>   35.3690    0.0000 </r>
      </set>
      <set comment="kpoint 4">
       <r>    0.1017    1.0000 </r>
       <r>    1.1581    1.0000 </r>
       <r>    3.1018    1.0000 </r>
       <r>    3.1450    1.0000 </r>
       <r>    3.2114    1.0356 </r>
       <r>    5.7667   -0.0080 </r>
       <r>    9.9907    0.0000 </r>
       <r>   19.0921    0.0000 </r>
       <r>   19.7287    0.0000 </r>
       <r>   27.0574    0.0000 </r>
       <r>   30.0992    0.0000 </r>
       <r>   35.7472    0.0000 </r>
      </set>
      <set comment="kpoint 5">
       <r>   -3.2384    1.0000 </r>
       <r>    2.0175    1.0000 </r>
       <r>    2.0175    1.0000 </r>
       <r>    2.0867    1.0000 </r>
       <r>    2.9645    1.0000 </r>
       <r>    3.1152    1.0000 </r>
       <r>   25.5245    0.0000 </r>
       <r>   26.6105    0.0000 </r>
       <r>   26.6105    0.0000 </r>
       <r>   28.7308    0.0000 </r>
       <r>   30.2716    0.0000 </r>
       <r>   30.2716    0.0000 </r>
      </set>
      <set comment="kpoint 6">
       <r>    0.1614    1.0000 </r>
       <r>    1.3347    1.0000 </r>
       <r>    1.4612    1.0000 </r>
       <r>    3.0171    1.0000 </r>
       <r>    3.2026    1.0000 </r>
       <r>    4.6189    0.0549 </r>
       <r>   15.8882    0.0000 </r>
       <r>   16.3382    0.0000 </r>
       <r>   19.8754    0.0000 </r>
       <r>   29.7693    0.0000 </r>
       <r>   32.6121    0.0000 </r>
       <r>   34.7561    0.0000 </r>
      </set>
      <set comment="kpoint 7">
       <r>    0.6086    1.0000 </r>
       <r>    1.1902    1.0000 </r>
       <r>    1.9804    1.0000 </r>
       <r>    3.1206    1.0000 </r>
       <r>    3.2721    1.0008 </r>
       <r>    6.7888   -0.0065 </r>
       <r>   11.4278    0.0000 </r>
       <r>   15.0050    0.0000 </r>
       <r>   18.7815    0.0000 </r>
       <r>   29.9467    0.0000 </r>
       <r>   33.8040    0.0000 </r>
       <r>   35.1801    0.0000 </r>
      </set>
      <set comment="kpoint 8">
       <r>   -2.1751    1.0000 </r>
       <r>    1.8109    1.0000 </r>
       <r>    1.9726    1.0000 </r>
       <r>    2.5751    1.0000 </r>
       <r>    2.7710    1.0000 </r>
       <r>    3.1872    1.0085 </r>
       <r>   20.8645    0.0000 </r>
       <r>   24.1882    0.0000 </r>
       <r>   24.5831    0.0000 </r>
       <r>   28.1663    0.0000 </r>
       <r>   28.2573    0.0000 </r>
       <r>   29.7715    0.0000 </r>
      </set>
      <set comment="kpoint 9">
       <r>    0.8848    1.0000 </r>
       <r>    1.4780    1.0000 </r>
       <r>    1.4780    1.0000 </r>
       <r>    3.2289    1.0000 </r>
       <r>    3.2289    1.0000 </r>
       <r>    9.9855    0.0000 </r>
       <r>    9.9855    0.0000 </r>
       <r>   11.7892    0.0000 </r>
       <r>   18.3606    0.0000 </r>
       <r>   32.2063    0.0000 </r>
       <r>   32.2063    0.0000 </r>
       <r>   37.8394    0.0000 </r>
      </set>
      <set comment="kpoint 10">
       <r>   -0.6005    1.0000 </r>
       <r>    1.5005    1.0000 </r>
       <r>    2.0258    1.0000 </r>
       <r>    2.9021    1.0000 </r>
       <r>    3.3193    1.0011 </r>
       <r>    3.3742    0.8388 </r>
       <r>   15.3384    0.0000 </r>
       <r>   22.0159    0.0000 </r>
       <r>   22.3487    0.0000 </r>
       <r>   26.7233    0.0000 </r>
       <r>   28.2497    0.0000 </r>
       <r>   31.1239    0.0000 </r>
      </set>
      <set comment="kpoint 11">
       <r>   -0.8328    1.0000 </r>
       <r>    1.6759    1.0000 </r>
       <r>    1.8000    1.0000 </r>
       <r>    2.6559    1.0000 </r>
       <r>    3.1711    1.0000 </r>
       <r>    3.4598    0.8646 </r>
       <r>   18.2796    0.0000 </r>
       <r>   18.8670    0.0000 </r>
       <r>   25.0191    0.0000 </r>
       <r>   25.3043    0.0000 </r>
       <r>   28.5886    0.0000 </r>
       <r>   32.8601    0.0000 </r>
      </set>
      <set comment="kpoint 12">
       <r>   -0.0135    1.0000 </r>
       <r>    1.2886    1.0000 </r>
       <r>    2.6813    1.0000 </r>
       <r>    3.0342    1.0000 </r>
       <r>    4.0138    0.9393 </r>
       <r>    4.4986    0.0143 </r>
       <r>   10.8652    0.0000 </r>
       <r>   20.8002    0.0000 </r>
       <r>   20.8531    0.0000 </r>
       <r>   26.0798    0.0000 </r>
       <r>   28.3763    0.0000 </r>
       <r>   32.9549    0.0000 </r>
      </set>
      <set comment="kpoint 13">
       <r>    0.2766    1.0000 </r>
       <r>    1.4216    1.0000 </r>
       <r>    1.8718    1.0000 </r>
       <r>    2.8784    1.0000 </r>
       <r>    3.4799    1.0023 </r>
       <r>    4.8778   -0.0214 </r>
       <r>   13.3199    0.0000 </r>
       <r>   16.9363    0.0000 </r>
       <r>   23.0301    0.0000 </r>
       <r>   26.0189    0.0000 </r>
       <r>   29.2856    0.0000 </r>
       <r>   33.2239    0.0000 </r>
      </set>
      <set comment="kpoint 14">
       <r>    0.3860    1.0000 </r>
       <r>    1.3992    1.0000 </r>
       <r>    2.0431    1.0000 </r>
       <r>    2.9587    1.0000 </r>
       <r>    3.7543    1.0123 </r>
       <r>    6.7397   -0.0032 </r>
       <r>   10.1148    0.0000 </r>
       <r>   16.3112    0.0000 </r>
       <r>   22.3070    0.0000 </r>
       <r>   26.2381    0.0000 </r>
       <r>   30.4972    0.0000 </r>
       <r>   32.5146    0.0000 </r>
      </set>
      <set comment="kpoint 15">
       <r>    0.9348    1.0000 </r>
       <r>    1.2017    1.0000 </r>
       <r>    1.6151    1.0000 </r>
       <r>    3.1070    1.0000 </r>
       <r>    3.4590    1.0002 </r>
       <r>    7.7307   -0.0012 </r>
       <r>   11.7213    0.0000 </r>
       <r>   12.6044    0.0000 </r>
       <r>   23.2359    0.0000 </r>
       <r>   26.6219    0.0000 </r>
       <r>   28.5405    0.0000 </r>
       <r>   34.0306    0.0000 </r>
      </set>
      <set comment="kpoint 16">
       <r>    1.1746    1.0000 </r>
       <r>    1.1746    1.0000 </r>
       <r>    1.2253    1.0000 </r>
       <r>    3.1901    1.0000 </r>
       <r>    3.1901    1.0000 </r>
       <r>    6.7251   -0.0079 </r>
       <r>   14.3875    0.0000 </r>
       <r>   14.3875    0.0000 </r>
       <r>   14.9646    0.0000 </r>
       <r>   34.2477    0.0000 </r>
       <r>   36.2525    0.0000 </r>
       <r>   36.2525    0.0000 </r>
      </set>
      <set comment="kpoint 17">
       <r>    1.0646    1.0000 </r>
       <r>    1.1374    1.0000 </r>
       <r>    1.6537    1.0000 </r>
       <r>    3.2145    1.0000 </r>
       <r>    3.2303    1.0000 </r>
       <r>    9.3580    0.0000 </r>
       <r>   10.7953    0.0000 </r>
       <r>   13.8751    0.0000 </r>
       <r>   14.2472    0.0000 </r>
       <r>   35.0178    0.0000 </r>
       <r>   37.9518    0.0000 </r>
       <r>   37.9973    0.0000 </r>
      </set>
      <set comment="kpoint 18">
       <r>   -1.2200    1.0000 </r>
       <r>    2.1431    1.0000 </r>
       <r>    2.1431    1.0000 </r>
       <r>    2.1780    1.0000 </r>
       <r>    2.5893    1.0000 </r>
       <r>    3.4530    0.9801 </r>
       <r>   21.3474    0.0000 </r>
       <r>   21.5504    0.0000 </r>
       <r>   21.5504    0.0000 </r>
       <r>   23.3375    0.0000 </r>
       <r>   32.1424    0.0000 </r>
       <r>   32.1424    0.0000 </r>
      </set>
      <set comment="kpoint 19">
       <r>    0.0714    1.0000 </r>
       <r>    1.5607    1.0000 </r>
       <r>    2.0365    1.0000 </r>
       <r>    2.5738    1.0000 </r>
       <r>    3.2848    1.0003 </r>
       <r>    4.1184    0.2389 </r>
       <r>   16.1307    0.0000 </r>
       <r>   19.1415    0.0000 </r>
       <r>   20.6518    0.0000 </r>
       <r>   23.9995    0.0000 </r>
       <r>   31.1983    0.0000 </r>
       <r>   32.7311    0.0000 </r>
      </set>
      <set comment="kpoint 20">
       <r>    0.4823    1.0000 </r>
       <r>    1.4892    1.0000 </r>
       <r>    1.8813    1.0000 </r>
       <r>    2.7469    1.0000 </r>
       <r>    3.9507    0.9958 </r>
       <r>    6.3057   -0.0159 </r>
       <r>   11.3959    0.0000 </r>
       <r>   17.6942    0.0000 </r>
       <r>   19.8698    0.0000 </r>
       <r>   26.5077    0.0000 </r>
       <r>   30.3498    0.0000 </r>
       <r>   30.7152    0.0000 </r>
      </set>
      <set comment="kpoint 21">
       <r>    0.7191    1.0000 </r>
       <r>    1.0669    1.0000 </r>
       <r>    2.1067    1.0000 </r>
       <r>    2.8796    1.0000 </r>
       <r>    3.6194    1.0001 </r>
       <r>    6.1396   -0.0205 </r>
       <r>   14.2504    0.0000 </r>
       <r>   14.6064    0.0000 </r>
       <r>   21.9810    0.0000 </r>
       <r>   23.0340    0.0000 </r>
       <r>   29.9442    0.0000 </r>
       <r>   32.2390    0.0000 </r>
      </set>
      <set comment="kpoint 22">
       <r>    0.7540    1.0000 </r>
       <r>    1.0581    1.0000 </r>
       <r>    1.9434    1.0000 </r>
       <r>    3.1231    1.0000 </r>
       <r>    3.8029    1.0005 </r>
       <r>    8.8988    0.0000 </r>
       <r>   10.6396    0.0000 </r>
       <r>   13.7902    0.0000 </r>
       <r>   21.9083    0.0000 </r>
       <r>   24.9379    0.0000 </r>
       <r>   27.2339    0.0000 </r>
       <r>   31.4036    0.0000 </r>
      </set>
      <set comment="kpoint 23">
       <r>    0.5424    1.0000 </r>
       <r>    1.0475    1.0000 </r>
       <r>    2.7582    1.0000 </r>
       <r>    2.7582    1.0000 </r>
       <r>    3.3145    1.0000 </r>
       <r>    5.5763   -0.0283 </r>
       <r>   16.5228    0.0000 </r>
       <r>   16.5228    0.0000 </r>
       <r>   19.0431    0.0000 </r>
       <r>   20.4082    0.0000 </r>
       <r>   30.7936    0.0000 </r>
       <r>   35.7755    0.0000 </r>
      </set>
      <set comment="kpoint 24">
       <r>    0.5508    1.0000 </r>
       <r>    0.6661    1.0000 </r>
       <r>    2.8687    1.0000 </r>
       <r>    3.0899    1.0000 </r>
       <r>    3.8635    1.0000 </r>
       <r>    8.3669    0.0000 </r>
       <r>   12.5776    0.0000 </r>
       <r>   14.9332    0.0000 </r>
       <r>   19.0256    0.0000 </r>
       <r>   21.5789    0.0000 </r>
       <r>   26.3177    0.0000 </r>
       <r>   35.2976    0.0000 </r>
      </set>
      <set comment="kpoint 25">
       <r>    0.4538    1.0000 </r>
       <r>    0.4538    1.0000 </r>
       <r>    2.9510    1.0000 </r>
       <r>    3.7430    1.0000 </r>
       <r>    3.7430    1.0000 </r>
       <r>   11.4701    0.0000 </r>
       <r>   11.4701    0.0000 </r>
       <r>   12.2922    0.0000 </r>
       <r>   20.4643    0.0000 </r>
       <r>   20.4643    0.0000 </r>
       <r>   23.6651    0.0000 </r>
       <r>   35.7644    0.0000 </r>
      </set>
      <set comment="kpoint 26">
       <r>    0.2458    1.0000 </r>
       <r>    0.2541    1.0000 </r>
       <r>    3.7110    1.0000 </r>
       <r>    3.7110    1.0000 </r>
       <r>    3.8362    1.0000 </r>
       <r>   10.9054    0.0000 </r>
       <r>   13.1926    0.0000 </r>
       <r>   13.1926    0.0000 </r>
       <r>   18.1307    0.0000 </r>
       <r>   19.0809    0.0000 </r>
       <r>   22.3020    0.0000 </r>
       <r>   39.0125    0.0000 </r>
      </set>
     </set>
     <set comment="spin 2">
      <set comment="kpoint 1">
       <r>   -2.3375    1.0000 </r>
       <r>    3.8791    1.0048 </r>
       <r>    3.8791    1.0437 </r>
       <r>    4.5961    0.0000 </r>
       <r>    5.4592    0.0000 </r>
       <r>    5.4592    0.0000 </r>
       <r>   23.9037    0.0000 </r>
       <r>   23.9037    0.0000 </r>
       <r>   26.6994    0.0000 </r>
       <r>   28.1015    0.0000 </r>
       <r>   32.0785    0.0000 </r>
       <r>   32.0785    0.0000 </r>
      </set>
      <set comment="kpoint 2">
       <r>   -0.8177    1.0000 </r>
       <r>    3.4860    1.0034 </r>
       <r>    3.6072    1.0145 </r>
       <r>    5.3550    0.0000 </r>
       <r>    5.4512    0.0000 </r>
       <r>    5.5786    0.0000 </r>
       <r>   18.8821    0.0000 </r>
       <r>   21.7328    0.0000 </r>
       <r>   23.2722    0.0000 </r>
       <r>   28.3453    0.0000 </r>
       <r>   31.5604    0.0000 </r>
       <r>   32.8155    0.0000 </r>
      </set>
      <set comment="kpoint 3">
       <r>    0.9413    1.0000 </r>
       <r>    3.1463    1.0000 </r>
       <r>    3.6605    1.0107 </r>
       <r>    5.4440    0.0000 </r>
       <r>    5.6812    0.0000 </r>
       <r>    6.5017    0.0000 </r>
       <r>   13.9893    0.0000 </r>
       <r>   20.1741    0.0000 </r>
       <r>   21.1863    0.0000 </r>
       <r>   27.8274    0.0000 </r>
       <r>   30.9312    0.0000 </r>
       <r>   35.8224    0.0000 </r>
      </set>
      <set comment="kpoint 4">
       <r>    1.4947    1.0000 </r>
       <r>    3.0159    1.0000 </r>
       <r>    4.3222    0.3563 </r>
       <r>    5.4967    0.0000 </r>
       <r>    5.7249    0.0000 </r>
       <r>    7.2604    0.0000 </r>
       <r>   11.3885    0.0000 </r>
       <r>   19.6036    0.0000 </r>
       <r>   20.3905    0.0000 </r>
       <r>   27.6094    0.0000 </r>
       <r>   30.8207    0.0000 </r>
       <r>   36.0043    0.0000 </r>
      </set>
      <set comment="kpoint 5">
       <r>   -2.8900    1.0000 </r>
       <r>    4.0693    0.4613 </r>
       <r>    4.0693    0.1633 </r>
       <r>    4.1570    0.0000 </r>
       <r>    5.3918    0.0000 </r>
       <r>    5.5849    0.0000 </r>
       <r>   25.7647    0.0000 </r>
       <r>   26.9053    0.0000 </r>
       <r>   26.9053    0.0000 </r>
       <r>   29.2917    0.0000 </r>
       <r>   31.0063    0.0000 </r>
       <r>   31.0063    0.0000 </r>
      </set>
      <set comment="kpoint 6">
       <r>    0.8489    1.0000 </r>
       <r>    3.1487    1.0000 </r>
       <r>    3.2455    1.0033 </r>
       <r>    5.4245    0.0000 </r>
       <r>    5.6837    0.0000 </r>
       <r>    6.6504    0.0000 </r>
       <r>   16.7528    0.0000 </r>
       <r>   17.1013    0.0000 </r>
       <r>   20.5485    0.0000 </r>
       <r>   30.0552    0.0000 </r>
       <r>   33.1526    0.0000 </r>
       <r>   35.2525    0.0000 </r>
      </set>
      <set comment="kpoint 7">
       <r>    2.0078    1.0000 </r>
       <r>    2.9649    1.0000 </r>
       <r>    3.4000    1.0158 </r>
       <r>    5.5374    0.0000 </r>
       <r>    5.7442    0.0000 </r>
       <r>    8.3152    0.0000 </r>
       <r>   12.5318    0.0000 </r>
       <r>   15.7947    0.0000 </r>
       <r>   19.4432    0.0000 </r>
       <r>   30.3340    0.0000 </r>
       <r>   34.1965    0.0000 </r>
       <r>   35.7523    0.0000 </r>
      </set>
      <set comment="kpoint 8">
       <r>   -1.8064    1.0000 </r>
       <r>    3.8154    1.0119 </r>
       <r>    3.9657    0.9036 </r>
       <r>    4.7006    0.0000 </r>
       <r>    5.1279    0.0000 </r>
       <r>    5.6667    0.0000 </r>
       <r>   21.5267    0.0000 </r>
       <r>   24.5768    0.0000 </r>
       <r>   25.2561    0.0000 </r>
       <r>   28.7520    0.0000 </r>
       <r>   28.8748    0.0000 </r>
       <r>   30.2411    0.0000 </r>
      </set>
      <set comment="kpoint 9">
       <r>    2.5601    1.0000 </r>
       <r>    3.0330    1.0000 </r>
       <r>    3.0330    1.0022 </r>
       <r>    5.6726    0.0000 </r>
       <r>    5.6726    0.0000 </r>
       <r>   11.1383    0.0000 </r>
       <r>   11.1383    0.0000 </r>
       <r>   12.7406    0.0000 </r>
       <r>   19.0492    0.0000 </r>
       <r>   32.5375    0.0000 </r>
       <r>   32.5375    0.0000 </r>
       <r>   38.6399    0.0000 </r>
      </set>
      <set comment="kpoint 10">
       <r>    0.0025    1.0000 </r>
       <r>    3.4392    1.0036 </r>
       <r>    3.7125    1.0209 </r>
       <r>    5.2062    0.0000 </r>
       <r>    5.6081    0.0000 </r>
       <r>    5.7566    0.0000 </r>
       <r>   16.2536    0.0000 </r>
       <r>   22.3826    0.0000 </r>
       <r>   23.0982    0.0000 </r>
       <r>   27.3912    0.0000 </r>
       <r>   28.8906    0.0000 </r>
       <r>   31.6039    0.0000 </r>
      </set>
      <set comment="kpoint 11">
       <r>   -0.3599    1.0000 </r>
       <r>    3.6172    1.0068 </r>
       <r>    3.7271    1.0488 </r>
       <r>    4.9360    0.0000 </r>
       <r>    5.3905    0.0000 </r>
       <r>    5.8456    0.0000 </r>
       <r>   19.0736    0.0000 </r>
       <r>   19.5915    0.0000 </r>
       <r>   25.5946    0.0000 </r>
       <r>   25.8094    0.0000 </r>
       <r>   29.1992    0.0000 </r>
       <r>   33.3181    0.0000 </r>
      </set>
      <set comment="kpoint 12">
       <r>    1.2716    1.0000 </r>
       <r>    3.1850    1.0000 </r>
       <r>    4.1635    0.4465 </r>
       <r>    5.3696    0.0000 </r>
       <r>    6.1032    0.0000 </r>
       <r>    6.3533    0.0000 </r>
       <r>   12.1328    0.0000 </r>
       <r>   21.1321    0.0000 </r>
       <r>   21.5368    0.0000 </r>
       <r>   26.8187    0.0000 </r>
       <r>   29.0926    0.0000 </r>
       <r>   33.3338    0.0000 </r>
      </set>
      <set comment="kpoint 13">
       <r>    1.3068    1.0000 </r>
       <r>    3.2448    1.0004 </r>
       <r>    3.5766    1.0414 </r>
       <r>    5.1546    0.0000 </r>
       <r>    5.8321    0.0000 </r>
       <r>    6.7738    0.0000 </r>
       <r>   14.3187    0.0000 </r>
       <r>   17.6942    0.0000 </r>
       <r>   23.5299    0.0000 </r>
       <r>   26.6261    0.0000 </r>
       <r>   29.8489    0.0000 </r>
       <r>   33.7984    0.0000 </r>
      </set>
      <set comment="kpoint 14">
       <r>    1.8544    1.0000 </r>
       <r>    3.2725    1.0000 </r>
       <r>    3.5964    1.0352 </r>
       <r>    5.2633    0.0000 </r>
       <r>    6.0546    0.0000 </r>
       <r>    8.0366    0.0000 </r>
       <r>   11.4466    0.0000 </r>
       <r>   17.0512    0.0000 </r>
       <r>   22.7796    0.0000 </r>
       <r>   26.9261    0.0000 </r>
       <r>   30.8792    0.0000 </r>
       <r>   33.1740    0.0000 </r>
      </set>
      <set comment="kpoint 15">
       <r>    2.4453    1.0000 </r>
       <r>    2.9016    1.0000 </r>
       <r>    3.3312    1.0161 </r>
       <r>    5.4000    0.0000 </r>
       <r>    5.7820    0.0000 </r>
       <r>    9.1013    0.0000 </r>
       <r>   12.8043    0.0000 </r>
[...]
       </set>
       <set comment="band 5">
        <r>  0.0066  0.0013  0.0013  0.0100  0.0879  0.3274  0.1127  0.0879  0.3380 </r>
       </set>
       <set comment="band 6">
        <r>  0.0648  0.0342  0.0342  0.1742  0.0980  0.1357  0.0457  0.0980  0.1370 </r>
       </set>
       <set comment="band 7">
        <r>  0.0000  0.1774  0.1774  0.0000  0.1206  0.0000  0.1178  0.1206  0.0393 </r>
       </set>
       <set comment="band 8">
        <r>  0.4379  0.0413  0.0413  0.0292  0.0600  0.0776  0.0017  0.0600  0.0051 </r>
       </set>
       <set comment="band 9">
        <r>  0.0164  0.1734  0.1734  0.0966  0.0424  0.0705  0.0002  0.0424  0.0007 </r>
       </set>
       <set comment="band 10">
        <r>  0.0000  0.0426  0.0426  0.0000  0.0354  0.0000  0.2615  0.0354  0.0872 </r>
       </set>
       <set comment="band 11">
        <r>  0.0310  0.0137  0.0137  0.0199  0.0227  0.1137  0.0773  0.0227  0.2319 </r>
       </set>
       <set comment="band 12">
        <r>  0.1257  0.0369  0.0369  0.1780  0.1773  0.1640  0.0170  0.1773  0.0510 </r>
       </set>
      </set>
      <set comment="kpoint 16">
       <set comment="band 1">
        <r>  0.1401  0.0679  0.0679  0.0679  0.1248  0.1248  0.0000  0.1248  0.0000 </r>
       </set>
       <set comment="band 2">
        <r>  0.0000  0.0313  0.0031  0.0229  0.0412  0.3093  0.0037  0.4228  0.0423 </r>
       </set>
       <set comment="band 3">
        <r>  0.0000  0.0069  0.0352  0.0153  0.4743  0.2062  0.0423  0.0927  0.0037 </r>
       </set>
       <set comment="band 4">
        <r>  0.0000  0.0000  0.0000  0.0000  0.0032  0.0241  0.0749  0.0317  0.8464 </r>
       </set>
       <set comment="band 5">
        <r>  0.0000  0.0000  0.0001  0.0000  0.0361  0.0153  0.8464  0.0076  0.0749 </r>
       </set>
       <set comment="band 6">
        <r>  0.0734  0.0452  0.0452  0.0452  0.2210  0.2210  0.0000  0.2210  0.0000 </r>
       </set>
       <set comment="band 7">
        <r>  0.0000  0.0102  0.1452  0.1533  0.1622  0.1713  0.0217  0.0114  0.0091 </r>
       </set>
       <set comment="band 8">
        <r>  0.0000  0.1957  0.0606  0.0525  0.0677  0.0586  0.0091  0.2185  0.0217 </r>
       </set>
       <set comment="band 9">
        <r>  0.5261  0.0729  0.0729  0.0729  0.0005  0.0005  0.0000  0.0005  0.0000 </r>
       </set>
       <set comment="band 10">
        <r>  0.0000  0.0000  0.0000  0.0000  0.0000  0.0000  0.0000  0.0000  0.0000 </r>
       </set>
       <set comment="band 11">
        <r>  0.0000  0.0010  0.0018  0.0037  0.1271  0.2532  0.0343  0.0689  0.0465 </r>
       </set>
       <set comment="band 12">
        <r>  0.0000  0.0033  0.0025  0.0007  0.1724  0.0463  0.0465  0.2305  0.0343 </r>
       </set>
      </set>
      <set comment="kpoint 17">
       <set comment="band 1">
        <r>  0.0307  0.0000  0.0000  0.0961  0.0000  0.6547  0.0124  0.0000  0.0372 </r>
       </set>
       <set comment="band 2">
        <r>  0.0000  0.0325  0.0325  0.0000  0.4042  0.0000  0.0000  0.4042  0.0000 </r>
       </set>
       <set comment="band 3">
        <r>  0.0000  0.0906  0.0906  0.0000  0.3115  0.0000  0.0000  0.3115  0.0000 </r>
       </set>
       <set comment="band 4">
        <r>  0.0004  0.0000  0.0000  0.0003  0.0000  0.0671  0.2285  0.0000  0.6855 </r>
       </set>
       <set comment="band 5">
        <r>  0.0000  0.0000  0.0000  0.0000  0.0000  0.0000  0.7376  0.0000  0.2459 </r>
       </set>
       <set comment="band 6">
        <r>  0.0000  0.1541  0.1541  0.0000  0.2264  0.0000  0.0000  0.2264  0.0000 </r>
       </set>
       <set comment="band 7">
        <r>  0.3012  0.0000  0.0000  0.1234  0.0000  0.3366  0.0051  0.0000  0.0152 </r>
       </set>
       <set comment="band 8">
        <r>  0.0000  0.1561  0.1561  0.0000  0.1861  0.0000  0.0000  0.1861  0.0000 </r>
       </set>
       <set comment="band 9">
        <r>  0.4226  0.0000  0.0000  0.2263  0.0000  0.0710  0.0022  0.0000  0.0067 </r>
       </set>
       <set comment="band 10">
        <r>  0.0000  0.0000  0.0000  0.0000  0.1126  0.0000  0.0000  0.1126  0.0000 </r>
       </set>
       <set comment="band 11">
        <r>  0.0000  0.0247  0.0247  0.0000  0.0484  0.0000  0.0000  0.0484  0.0000 </r>
       </set>
       <set comment="band 12">
        <r>  0.0122  0.0000  0.0000  0.0988  0.0000  0.0689  0.1057  0.0000  0.3172 </r>
       </set>
      </set>
      <set comment="kpoint 18">
       <set comment="band 1">
        <r>  0.4440  0.0000  0.0000  0.1310  0.0000  0.0000  0.0088  0.0000  0.0265 </r>
       </set>
       <set comment="band 2">
        <r>  0.0000  0.0088  0.0088  0.0000  0.4624  0.0000  0.0000  0.4624  0.0000 </r>
       </set>
       <set comment="band 3">
        <r>  0.0000  0.0088  0.0088  0.0000  0.4624  0.0000  0.0000  0.4624  0.0000 </r>
       </set>
       <set comment="band 4">
        <r>  0.0000  0.0000  0.0000  0.0000  0.0000  0.0000  0.6797  0.0000  0.2266 </r>
       </set>
       <set comment="band 5">
        <r>  0.0000  0.0000  0.0000  0.0000  0.0000  0.9650  0.0000  0.0000  0.0000 </r>
       </set>
       <set comment="band 6">
        <r>  0.0218  0.0000  0.0000  0.0048  0.0000  0.0000  0.2371  0.0000  0.7114 </r>
       </set>
       <set comment="band 7">
        <r>  0.0000  0.0000  0.0000  0.0000  0.0000  0.0000  0.3580  0.0000  0.1193 </r>
       </set>
       <set comment="band 8">
        <r>  0.0000  0.1878  0.1885  0.0000  0.2058  0.0000  0.0000  0.2066  0.0000 </r>
       </set>
       <set comment="band 9">
        <r>  0.0000  0.1885  0.1878  0.0000  0.2066  0.0000  0.0000  0.2058  0.0000 </r>
       </set>
       <set comment="band 10">
        <r>  0.1805  0.0000  0.0000  0.3032  0.0000  0.0000  0.0000  0.0000  0.0001 </r>
       </set>
       <set comment="band 11">
        <r>  0.0000  0.1487  0.1467  0.0000  0.0177  0.0000  0.0000  0.0174  0.0000 </r>
       </set>
       <set comment="band 12">
        <r>  0.0000  0.1467  0.1487  0.0000  0.0174  0.0000  0.0000  0.0177  0.0000 </r>
       </set>
      </set>
      <set comment="kpoint 19">
       <set comment="band 1">
        <r>  0.2867  0.0066  0.0000  0.1721  0.0394  0.0000  0.0537  0.0000  0.0876 </r>
       </set>
       <set comment="band 2">
        <r>  0.0010  0.0208  0.0000  0.0073  0.1913  0.0000  0.4271  0.0000  0.2190 </r>
       </set>
       <set comment="band 3">
        <r>  0.0000  0.0000  0.0179  0.0000  0.0000  0.2692  0.0000  0.6488  0.0000 </r>
       </set>
       <set comment="band 4">
        <r>  0.0000  0.0180  0.0000  0.0056  0.6521  0.0000  0.2514  0.0000  0.0097 </r>
       </set>
       <set comment="band 5">
        <r>  0.0000  0.0000  0.0066  0.0000  0.0000  0.6982  0.0000  0.2669  0.0000 </r>
       </set>
       <set comment="band 6">
        <r>  0.0733  0.0057  0.0000  0.0362  0.0122  0.0000  0.1708  0.0000  0.6440 </r>
       </set>
       <set comment="band 7">
        <r>  0.1005  0.2594  0.0000  0.0387  0.2220  0.0000  0.0745  0.0000  0.0369 </r>
       </set>
       <set comment="band 8">
        <r>  0.0000  0.0000  0.4726  0.0000  0.0000  0.0070  0.0000  0.2994  0.0000 </r>
       </set>
       <set comment="band 9">
        <r>  0.1011  0.0003  0.0000  0.0838  0.0079  0.0000  0.2918  0.0000  0.0348 </r>
       </set>
       <set comment="band 10">
        <r>  0.0643  0.1979  0.0000  0.0738  0.0873  0.0000  0.0501  0.0000  0.1056 </r>
       </set>
       <set comment="band 11">
        <r>  0.0000  0.0000  0.1559  0.0000  0.0000  0.4665  0.0000  0.1402  0.0000 </r>
       </set>
       <set comment="band 12">
        <r>  0.0653  0.1560  0.0000  0.0118  0.1113  0.0000  0.1335  0.0000  0.0773 </r>
       </set>
      </set>
      <set comment="kpoint 20">
       <set comment="band 1">
        <r>  0.1083  0.0000  0.0000  0.0739  0.2379  0.0000  0.3112  0.0000  0.0414 </r>
       </set>
       <set comment="band 2">
        <r>  0.0028  0.0716  0.0000  0.0661  0.0345  0.0000  0.1101  0.0000  0.5031 </r>
       </set>
       <set comment="band 3">
        <r>  0.0000  0.0000  0.0177  0.0000  0.0000  0.4062  0.0000  0.5067  0.0000 </r>
       </set>
       <set comment="band 4">
        <r>  0.0187  0.0085  0.0000  0.0003  0.4915  0.0000  0.4154  0.0000  0.0059 </r>
       </set>
       <set comment="band 5">
        <r>  0.0000  0.0000  0.0019  0.0000  0.0000  0.5567  0.0000  0.4292  0.0000 </r>
       </set>
       <set comment="band 6">
        <r>  0.0678  0.0822  0.0000  0.1720  0.0504  0.0000  0.0333  0.0000  0.4175 </r>
       </set>
       <set comment="band 7">
        <r>  0.2597  0.1688  0.0000  0.0042  0.2596  0.0000  0.0775  0.0000  0.0266 </r>
       </set>
       <set comment="band 8">
        <r>  0.0000  0.0000  0.5386  0.0000  0.0000  0.0480  0.0000  0.1567  0.0000 </r>
       </set>
       <set comment="band 9">
        <r>  0.1148  0.0292  0.0000  0.0600  0.0019  0.0000  0.3099  0.0000  0.0037 </r>
       </set>
       <set comment="band 10">
        <r>  0.0145  0.1690  0.0000  0.0049  0.0220  0.0000  0.0451  0.0000  0.2874 </r>
       </set>
       <set comment="band 11">
        <r>  0.0000  0.0000  0.1330  0.0000  0.0000  0.4099  0.0000  0.2817  0.0000 </r>
       </set>
       <set comment="band 12">
        <r>  0.0002  0.1217  0.0000  0.2296  0.0030  0.0000  0.2693  0.0000  0.1135 </r>
       </set>
      </set>
      <set comment="kpoint 21">
       <set comment="band 1">
        <r>  0.1134  0.0041  0.0041  0.1456  0.0421  0.0001  0.0933  0.0421  0.2798 </r>
       </set>
       <set comment="band 2">
        <r>  0.0000  0.0149  0.0149  0.0000  0.0596  0.0000  0.5203  0.0596  0.1734 </r>
       </set>
       <set comment="band 3">
        <r>  0.0063  0.0119  0.0119  0.0060  0.2489  0.3133  0.0181  0.2489  0.0542 </r>
       </set>
       <set comment="band 4">
        <r>  0.0000  0.0123  0.0123  0.0000  0.3834  0.0000  0.1169  0.3834  0.0390 </r>
       </set>
       <set comment="band 5">
        <r>  0.0128  0.0001  0.0001  0.0059  0.1083  0.6051  0.0331  0.1083  0.0994 </r>
       </set>
       <set comment="band 6">
        <r>  0.1203  0.0140  0.0140  0.1468  0.0551  0.0476  0.1003  0.0551  0.3009 </r>
       </set>
       <set comment="band 7">
        <r>  0.0000  0.1948  0.1948  0.0000  0.0928  0.0000  0.1287  0.0928  0.0429 </r>
       </set>
       <set comment="band 8">
        <r>  0.2349  0.1313  0.1313  0.0337  0.0814  0.0221  0.0035  0.0814  0.0105 </r>
       </set>
       <set comment="band 9">
        <r>  0.0000  0.0540  0.0540  0.0000  0.0300  0.0000  0.3334  0.0300  0.1111 </r>
       </set>
       <set comment="band 10">
        <r>  0.1083  0.1216  0.1216  0.0525  0.0096  0.0012  0.0349  0.0096  0.1047 </r>
       </set>
       <set comment="band 11">
        <r>  0.0000  0.0564  0.0564  0.1477  0.0365  0.1521  0.0585  0.0365  0.1755 </r>
       </set>
       <set comment="band 12">
        <r>  0.1559  0.0008  0.0008  0.1361  0.1075  0.1912  0.0258  0.1075  0.0773 </r>
       </set>
      </set>
      <set comment="kpoint 22">
       <set comment="band 1">
        <r>  0.0252  0.0183  0.0159  0.0183  0.1512  0.0000  0.5845  0.0000  0.0000 </r>
       </set>
       <set comment="band 2">
        <r>  0.0000  0.0558  0.0000  0.0558  0.0000  0.0169  0.0000  0.0169  0.6467 </r>
       </set>
       <set comment="band 3">
        <r>  0.0292  0.0009  0.0162  0.0009  0.1567  0.3305  0.0469  0.3305  0.0000 </r>
       </set>
       <set comment="band 4">
        <r>  0.0090  0.0053  0.0098  0.0053  0.5023  0.1145  0.1912  0.1145  0.0000 </r>
       </set>
       <set comment="band 5">
        <r>  0.0000  0.0080  0.0000  0.0080  0.0000  0.4378  0.0000  0.4378  0.0854 </r>
       </set>
       <set comment="band 6">
        <r>  0.0000  0.2028  0.0000  0.2028  0.0000  0.0452  0.0000  0.0452  0.2658 </r>
       </set>
       <set comment="band 7">
        <r>  0.2769  0.0741  0.0262  0.0741  0.2346  0.0008  0.1069  0.0008  0.0000 </r>
       </set>
       <set comment="band 8">
        <r>  0.1465  0.0048  0.3454  0.0048  0.0002  0.0762  0.0739  0.0762  0.0000 </r>
       </set>
       <set comment="band 9">
        <r>  0.0406  0.0063  0.1457  0.0063  0.0075  0.0094  0.3661  0.0094  0.0000 </r>
       </set>
       <set comment="band 10">
        <r>  0.0000  0.0447  0.0000  0.0447  0.0000  0.0038  0.0000  0.0038  0.4530 </r>
       </set>
       <set comment="band 11">
        <r>  0.0651  0.2217  0.0678  0.2217  0.0020  0.0165  0.1082  0.0165  0.0000 </r>
       </set>
       <set comment="band 12">
        <r>  0.1831  0.0073  0.0135  0.0073  0.1639  0.2355  0.0024  0.2355  0.0000 </r>
       </set>
      </set>
      <set comment="kpoint 23">
       <set comment="band 1">
        <r>  0.1230  0.0000  0.0000  0.1664  0.0000  0.0000  0.1040  0.0000  0.3121 </r>
       </set>
       <set comment="band 2">
        <r>  0.0000  0.0000  0.0000  0.0000  0.0000  0.0000  0.6380  0.0000  0.2127 </r>
       </set>
       <set comment="band 3">
        <r>  0.0000  0.0184  0.0184  0.0000  0.4506  0.0000  0.0000  0.4506  0.0000 </r>
       </set>
       <set comment="band 4">
        <r>  0.0000  0.0184  0.0184  0.0000  0.4506  0.0000  0.0000  0.4506  0.0000 </r>
       </set>
       <set comment="band 5">
        <r>  0.0000  0.0000  0.0000  0.0000  0.0000  0.9741  0.0000  0.0000  0.0000 </r>
       </set>
       <set comment="band 6">
        <r>  0.1670  0.0000  0.0000  0.1342  0.0000  0.0000  0.1394  0.0000  0.4182 </r>
       </set>
       <set comment="band 7">
        <r>  0.0000  0.2601  0.2601  0.0000  0.1135  0.0000  0.0000  0.1134  0.0000 </r>
       </set>
       <set comment="band 8">
        <r>  0.0000  0.2601  0.2601  0.0000  0.1134  0.0000  0.0000  0.1135  0.0000 </r>
       </set>
       <set comment="band 9">
        <r>  0.0000  0.0000  0.0000  0.0000  0.0000  0.0000  0.4875  0.0000  0.1625 </r>
       </set>
       <set comment="band 10">
        <r>  0.3232  0.0000  0.0000  0.0969  0.0000  0.0000  0.0386  0.0000  0.1157 </r>
       </set>
       <set comment="band 11">
        <r>  0.1076  0.0000  0.0000  0.2861  0.0000  0.0000  0.0913  0.0000  0.2738 </r>
       </set>
       <set comment="band 12">
        <r>  0.0000  0.0000  0.0000  0.0000  0.0000  0.8378  0.0000  0.0000  0.0000 </r>
       </set>
      </set>
      <set comment="kpoint 24">
       <set comment="band 1">
        <r>  0.0209  0.0013  0.0000  0.0758  0.0185  0.0000  0.3200  0.0000  0.3508 </r>
       </set>
       <set comment="band 2">
        <r>  0.0001  0.0183  0.0000  0.0039  0.0145  0.0000  0.4291  0.0000  0.3595 </r>
       </set>
       <set comment="band 3">
        <r>  0.0000  0.0000  0.0296  0.0000  0.0000  0.3286  0.0000  0.5857  0.0000 </r>
       </set>
       <set comment="band 4">
        <r>  0.0176  0.0253  0.0000  0.0051  0.8292  0.0000  0.0595  0.0000  0.0022 </r>
       </set>
       <set comment="band 5">
        <r>  0.0000  0.0000  0.0018  0.0000  0.0000  0.6415  0.0000  0.3420  0.0000 </r>
       </set>
       <set comment="band 6">
        <r>  0.1307  0.0299  0.0000  0.3007  0.0337  0.0000  0.0470  0.0000  0.2186 </r>
       </set>
       <set comment="band 7">
        <r>  0.1245  0.3809  0.0000  0.0006  0.1423  0.0000  0.0420  0.0000  0.0462 </r>
       </set>
       <set comment="band 8">
        <r>  0.0000  0.0000  0.5665  0.0000  0.0000  0.0235  0.0000  0.1186  0.0000 </r>
       </set>
       <set comment="band 9">
        <r>  0.1066  0.0001  0.0000  0.0091  0.0029  0.0000  0.5389  0.0000  0.0091 </r>
       </set>
       <set comment="band 10">
        <r>  0.1037  0.1152  0.0000  0.0016  0.0095  0.0000  0.0053  0.0000  0.3968 </r>
       </set>
       <set comment="band 11">
        <r>  0.2383  0.0472  0.0000  0.2657  0.0101  0.0000  0.0825  0.0000  0.1214 </r>
       </set>
       <set comment="band 12">
        <r>  0.0000  0.0000  0.0722  0.0000  0.0000  0.4091  0.0000  0.2165  0.0000 </r>
       </set>
      </set>
      <set comment="kpoint 25">
       <set comment="band 1">
        <r>  0.0000  0.0148  0.0000  0.0148  0.0000  0.0038  0.0000  0.0038  0.7780 </r>
       </set>
       <set comment="band 2">
        <r>  0.0000  0.0049  0.0197  0.0049  0.0051  0.0013  0.7780  0.0013  0.0000 </r>
       </set>
       <set comment="band 3">
        <r>  0.0155  0.0100  0.0100  0.0100  0.2970  0.2970  0.0000  0.2970  0.0000 </r>
       </set>
       <set comment="band 4">
        <r>  0.0000  0.0025  0.0100  0.0025  0.6281  0.1570  0.0170  0.1570  0.0000 </r>
       </set>
       <set comment="band 5">
        <r>  0.0000  0.0075  0.0000  0.0075  0.0000  0.4710  0.0000  0.4710  0.0170 </r>
       </set>
       <set comment="band 6">
        <r>  0.0000  0.2538  0.0000  0.2538  0.0000  0.0250  0.0000  0.0250  0.1552 </r>
       </set>
       <set comment="band 7">
        <r>  0.0000  0.0846  0.3383  0.0846  0.0333  0.0083  0.1552  0.0083  0.0000 </r>
       </set>
       <set comment="band 8">
        <r>  0.2677  0.1057  0.1057  0.1057  0.0440  0.0440  0.0000  0.0440  0.0000 </r>
       </set>
       <set comment="band 9">
        <r>  0.0000  0.0381  0.0000  0.0381  0.0000  0.0025  0.0000  0.0025  0.5821 </r>
       </set>
       <set comment="band 10">
        <r>  0.0000  0.0127  0.0508  0.0127  0.0034  0.0008  0.5821  0.0008  0.0000 </r>
       </set>
       <set comment="band 11">
        <r>  0.4785  0.0993  0.0993  0.0993  0.0035  0.0035  0.0000  0.0035  0.0000 </r>
       </set>
       <set comment="band 12">
        <r>  0.0322  0.0204  0.0204  0.0204  0.1798  0.1798  0.0000  0.1798  0.0000 </r>
       </set>
      </set>
      <set comment="kpoint 26">
       <set comment="band 1">
        <r>  0.0012  0.0000  0.0000  0.0202  0.0000  0.0000  0.1978  0.0000  0.5934 </r>
       </set>
       <set comment="band 2">
        <r>  0.0000  0.0000  0.0000  0.0000  0.0000  0.0000  0.6173  0.0000  0.2058 </r>
       </set>
       <set comment="band 3">
        <r>  0.0000  0.0078  0.0078  0.0000  0.4785  0.0000  0.0000  0.4785  0.0000 </r>
       </set>
       <set comment="band 4">
        <r>  0.0000  0.0078  0.0078  0.0000  0.4785  0.0000  0.0000  0.4785  0.0000 </r>
       </set>
       <set comment="band 5">
        <r>  0.0000  0.0000  0.0000  0.0000  0.0000  0.9856  0.0000  0.0000  0.0000 </r>
       </set>
       <set comment="band 6">
        <r>  0.0874  0.0000  0.0000  0.4872  0.0000  0.0000  0.0274  0.0000  0.0823 </r>
       </set>
       <set comment="band 7">
        <r>  0.0000  0.3073  0.3073  0.0000  0.0233  0.0000  0.0000  0.0233  0.0000 </r>
       </set>
       <set comment="band 8">
        <r>  0.0000  0.3073  0.3073  0.0000  0.0233  0.0000  0.0000  0.0233  0.0000 </r>
       </set>
       <set comment="band 9">
        <r>  0.0000  0.0000  0.0000  0.0000  0.0000  0.0000  0.5544  0.0000  0.1848 </r>
       </set>
       <set comment="band 10">
        <r>  0.1234  0.0000  0.0000  0.0074  0.0000  0.0000  0.1445  0.0000  0.4335 </r>
       </set>
       <set comment="band 11">
        <r>  0.5784  0.0000  0.0000  0.1323  0.0000  0.0000  0.0187  0.0000  0.0561 </r>
       </set>
       <set comment="band 12">
        <r>  0.0000  0.0000  0.0000  0.0000  0.0000  0.2508  0.0000  0.0000  0.0000 </r>
       </set>
      </set>
     </set>
    </set>
   </array>
  </projected>
 </calculation>
 <structure name="finalpos" >
  <crystal>
   <varray name="basis" >
    <v>      -1.50000000       1.50000000       1.50000000 </v>
    <v>       1.50000000      -1.50000000       1.50000000 </v>
    <v>       1.50000000       1.50000000      -1.50000000 </v>
   </varray>
   <i name="volume">     13.50000000 </i>
   <varray name="rec_basis" >
    <v>       0.00000000       0.33333333       0.33333333 </v>
    <v>       0.33333333       0.00000000       0.33333333 </v>
    <v>       0.33333333       0.33333333       0.00000000 </v>
   </varray>
  </crystal>
  <varray name="positions" >
   <v>       0.00000000       0.00000000       0.00000000 </v>
  </varray>
 </structure>
</modeling>
