Si beta-tin                             
   2.10000000000000     
     0.980376   -0.000000   -0.000000
    -0.490188    0.849031   -0.000000
     0.000000   -0.000000    1.699019
    S
     2
Direct
  0.000000  0.000000  0.000000
  0.333333  0.666667  0.500000
 
   32   32   48
 -3.1551     -2.9436     -2.3234     -1.3377     -.60771E-01  1.4056      2.9430      4.4339      5.7802      6.9155    
  7.8100      8.4660      8.9097      9.1817      9.3281      9.3937      9.4129      9.3937      9.3281      9.1817    
  8.9097      8.4660      7.8100      6.9155      5.7802      4.4339      2.9430      1.4056     -.60771E-01 -1.3377    
 -2.3234     -2.9436     -2.9436     -2.9436     -2.5306     -1.7327     -.60809     0.75529      2.2471      3.7489    
  5.1526      6.3766      7.3736      8.1311      8.6646      9.0083      9.2060      9.3035      9.3420      9.3420    
  9.3035      9.2060      9.0083      8.6646      8.1311      7.3736      6.3766      5.1526      3.7489      2.2471    
 0.75529     -.60809     -1.7327     -2.5306     -2.3234     -2.5250     -2.3234     -1.7327     -.79565     0.41515    
  1.8017      3.2511      4.6528      5.9146      6.9751      7.8071      8.4139      8.8213      9.0685      9.1999    
  9.2585      9.2760      9.2585      9.1999      9.0685      8.8213      8.4139      7.8071      6.9751      5.9146    
  4.6528      3.2511      1.8017     0.41515     -.79565     -1.7327     -1.3377     -1.7167     -1.7167     -1.3377    
 -.60809     0.41515      1.6484      2.9894      4.3308      5.5765      6.6551      7.5268      8.1825      8.6383    
  8.9268      9.0892      9.1680      9.2001      9.2001      9.1680      9.0892      8.9268      8.6383      8.1825    
  7.5268      6.6551      5.5765      4.3308      2.9894      1.6484     0.41515     -.60809     -.60771E-01 -.57833    
 -.75552     -.57833     -.60770E-01 0.75529      1.8017      2.9894      4.2196      5.3979      6.4479      7.3203    
  7.9952      8.4786      8.7952      8.9813      9.0771      9.1205      9.1342      9.1205      9.0771      8.9813    
  8.7952      8.4786      7.9952      7.3203      6.4479      5.3979      4.2196      2.9894      1.8017     0.75529    
  1.4056     0.80060     0.48464     0.48464     0.80060      1.4056      2.2471      3.2511      4.3308      5.3979    
  6.3762      7.2109      7.8733      8.3602      8.6882      8.8872      8.9938      9.0446      9.0672      9.0672    
  9.0446      8.9938      8.8872      8.6882      8.3602      7.8733      7.2109      6.3762      5.3979      4.3308    
  3.2511      2.2471      2.9430      2.3081      1.9024      1.7630      1.9024      2.3081      2.9430      3.7489    
  4.6528      5.5765      6.4479      7.2109      7.8310      8.2972      8.6183      8.8175      8.9266      8.9798    
  9.0060      9.0145      9.0060      8.9798      8.9266      8.8175      8.6183      8.2972      7.8310      7.2109    
  6.4479      5.5765      4.6528      3.7489      4.4339      3.8244      3.3821      3.1498      3.1498      3.3821    
  3.8244      4.4339      5.1526      5.9146      6.6551      7.3203      7.8733      8.2972      8.5940      8.7804    
  8.8830      8.9324      8.9571      8.9687      8.9687      8.9571      8.9324      8.8830      8.7804      8.5940    
  8.2972      7.8733      7.3203      6.6551      5.9146      5.1526      5.7802      5.2406      4.8108      4.5340    
  4.4385      4.5340      4.8108      5.2406      5.7802      6.3766      6.9751      7.5268      7.9952      8.3602    
  8.6183      8.7804      8.8679      8.9074      8.9255      8.9349      8.9379      8.9349      8.9255      8.9074    
  8.8679      8.7804      8.6183      8.3602      7.9952      7.5268      6.9751      6.3766      6.9155      6.4748    
  6.0954      5.8173      5.6703      5.6703      5.8173      6.0954      6.4748      6.9155      7.3736      7.8071    
  8.1825      8.4786      8.6882      8.8175      8.8830      8.9074      8.9146      8.9171      8.9177      8.9177    
  8.9171      8.9146      8.9074      8.8830      8.8175      8.6882      8.4786      8.1825      7.8071      7.3736    
  7.8100      7.4798      7.1744      6.9273      6.7665      6.7108      6.7665      6.9273      7.1744      7.4798    
  7.8100      8.1311      8.4139      8.6383      8.7952      8.8872      8.9266      8.9324      8.9255      8.9171    
  8.9107      8.9084      8.9107      8.9171      8.9255      8.9324      8.9266      8.8872      8.7952      8.6383    
  8.4139      8.1311      8.4660      8.2434      8.0208      7.8241      7.6773      7.5990      7.5990      7.6773    
  7.8241      8.0208      8.2434      8.4660      8.6646      8.8213      8.9268      8.9813      8.9938      8.9798    
  8.9571      8.9349      8.9177      8.9084      8.9084      8.9177      8.9349      8.9571      8.9798      8.9938    
  8.9813      8.9268      8.8213      8.6646      8.9097      8.7816      8.6386      8.4995      8.3833      8.3062    
  8.2792      8.3062      8.3833      8.4995      8.6386      8.7816      8.9097      9.0083      9.0685      9.0892    
  9.0771      9.0446      9.0060      8.9687      8.9379      8.9177      8.9107      8.9177      8.9379      8.9687    
  9.0060      9.0446      9.0771      9.0892      9.0685      9.0083      9.1817      9.1287      9.0544      8.9707    
  8.8913      8.8296      8.7959      8.7959      8.8296      8.8913      8.9707      9.0544      9.1287      9.1817    
  9.2060      9.1999      9.1680      9.1205      9.0672      9.0145      8.9687      8.9349      8.9171      8.9171    
  8.9349      8.9687      9.0145      9.0672      9.1205      9.1680      9.1999      9.2060      9.3281      9.3290    
  9.3079      9.2710      9.2274      9.1870      9.1587      9.1486      9.1587      9.1870      9.2274      9.2710    
  9.3079      9.3290      9.3281      9.3035      9.2585      9.2001      9.1342      9.0672      9.0060      8.9571    
  8.9255      8.9146      8.9255      8.9571      9.0060      9.0672      9.1342      9.2001      9.2585      9.3035    
  9.3937      9.4282      9.4438      9.4422      9.4284      9.4093      9.3918      9.3815      9.3815      9.3918    
  9.4093      9.4284      9.4422      9.4438      9.4282      9.3937      9.3420      9.2760      9.2001      9.1205    
  9.0446      8.9798      8.9324      8.9074      8.9074      8.9324      8.9798      9.0446      9.1205      9.2001    
  9.2760      9.3420      9.4129      9.4676      9.5051      9.5268      9.5348      9.5334      9.5275      9.5217    
  9.5194      9.5217      9.5275      9.5334      9.5348      9.5268      9.5051      9.4676      9.4129      9.3420    
  9.2585      9.1680      9.0771      8.9938      8.9266      8.8830      8.8679      8.8830      8.9266      8.9938    
  9.0771      9.1680      9.2585      9.3420      9.3937      9.4676      9.5235      9.5618      9.5848      9.5960    
  9.5998      9.5998      9.5989      9.5989      9.5998      9.5998      9.5960      9.5848      9.5618      9.5235    
  9.4676      9.3937      9.3035      9.1999      9.0892      8.9813      8.8872      8.8175      8.7804      8.7804    
  8.8175      8.8872      8.9813      9.0892      9.1999      9.3035      9.3281      9.4282      9.5051      9.5618    
  9.6006      9.6246      9.6378      9.6439      9.6463      9.6468      9.6463      9.6439      9.6378      9.6246    
  9.6006      9.5618      9.5051      9.4282      9.3281      9.2060      9.0685      8.9268      8.7952      8.6882    
  8.6183      8.5940      8.6183      8.6882      8.7952      8.9268      9.0685      9.2060      9.1817      9.3290    
  9.4438      9.5268      9.5848      9.6246      9.6502      9.6654      9.6736      9.6771      9.6771      9.6736    
  9.6654      9.6502      9.6246      9.5848      9.5268      9.4438      9.3290      9.1817      9.0083      8.8213    
  8.6383      8.4786      8.3602      8.2972      8.2972      8.3602      8.4786      8.6383      8.8213      9.0083    
  8.9097      9.1287      9.3079      9.4422      9.5348      9.5960      9.6378      9.6654      9.6826      9.6919    
  9.6948      9.6919      9.6826      9.6654      9.6378      9.5960      9.5348      9.4422      9.3079      9.1287    
  8.9097      8.6646      8.4139      8.1825      7.9952      7.8733      7.8310      7.8733      7.9952      8.1825    
  8.4139      8.6646      8.4660      8.7816      9.0544      9.2710      9.4284      9.5334      9.5998      9.6439    
  9.6736      9.6919      9.7006      9.7006      9.6919      9.6736      9.6439      9.5998      9.5334      9.4284    
  9.2710      9.0544      8.7816      8.4660      8.1311      7.8071      7.5268      7.3203      7.2109      7.2109    
  7.3203      7.5268      7.8071      8.1311      7.8100      8.2434      8.6386      8.9707      9.2274      9.4093    
  9.5275      9.5998      9.6463      9.6771      9.6948      9.7006      9.6948      9.6771      9.6463      9.5998    
  9.5275      9.4093      9.2274      8.9707      8.6386      8.2434      7.8100      7.3736      6.9751      6.6551    
  6.4479      6.3762      6.4479      6.6551      6.9751      7.3736      6.9155      7.4798      8.0208      8.4995    
  8.8913      9.1870      9.3918      9.5217      9.5989      9.6468      9.6771      9.6919      9.6919      9.6771    
  9.6468      9.5989      9.5217      9.3918      9.1870      8.8913      8.4995      8.0208      7.4798      6.9155    
  6.3766      5.9146      5.5765      5.3979      5.3979      5.5765      5.9146      6.3766      5.7802      6.4748    
  7.1744      7.8241      8.3833      8.8296      9.1587      9.3815      9.5194      9.5989      9.6463      9.6736    
  9.6826      9.6736      9.6463      9.5989      9.5194      9.3815      9.1587      8.8296      8.3833      7.8241    
  7.1744      6.4748      5.7802      5.1526      4.6528      4.3308      4.2196      4.3308      4.6528      5.1526    
  4.4339      5.2406      6.0954      6.9273      7.6773      8.3062      8.7959      9.1486      9.3815      9.5217    
  9.5998      9.6439      9.6654      9.6654      9.6439      9.5998      9.5217      9.3815      9.1486      8.7959    
  8.3062      7.6773      6.9273      6.0954      5.2406      4.4339      3.7489      3.2511      2.9894      2.9894    
  3.2511      3.7489      2.9430      3.8244      4.8108      5.8173      6.7665      7.5990      8.2792      8.7959    
  9.1587      9.3918      9.5275      9.5998      9.6378      9.6502      9.6378      9.5998      9.5275      9.3918    
  9.1587      8.7959      8.2792      7.5990      6.7665      5.8173      4.8108      3.8244      2.9430      2.2471    
  1.8017      1.6484      1.8017      2.2471      1.4056      2.3081      3.3821      4.5340      5.6703      6.7108    
  7.5990      8.3062      8.8296      9.1870      9.4093      9.5334      9.5960      9.6246      9.6246      9.5960    
  9.5334      9.4093      9.1870      8.8296      8.3062      7.5990      6.7108      5.6703      4.5340      3.3821    
  2.3081      1.4056     0.75529     0.41515     0.41515     0.75529     -.60771E-01 0.80060      1.9024      3.1498    
  4.4385      5.6703      6.7665      7.6773      8.3833      8.8913      9.2274      9.4284      9.5348      9.5848    
  9.6006      9.5848      9.5348      9.4284      9.2274      8.8913      8.3833      7.6773      6.7665      5.6703    
  4.4385      3.1498      1.9024     0.80060     -.60770E-01 -.60809     -.79565     -.60809     -1.3377     -.57833    
 0.48464      1.7630      3.1498      4.5340      5.8173      6.9273      7.8241      8.4995      8.9707      9.2710    
  9.4422      9.5268      9.5618      9.5618      9.5268      9.4422      9.2710      8.9707      8.4995      7.8241    
  6.9273      5.8173      4.5340      3.1498      1.7630     0.48464     -.57833     -1.3377     -1.7327     -1.7327    
 -2.3234     -1.7167     -.75552     0.48464      1.9024      3.3821      4.8108      6.0954      7.1744      8.0208    
  8.6386      9.0544      9.3079      9.4438      9.5051      9.5235      9.5051      9.4438      9.3079      9.0544    
  8.6386      8.0208      7.1744      6.0954      4.8108      3.3821      1.9024     0.48464     -.75552     -1.7167    
 -2.3234     -2.5306     -2.9436     -2.5250     -1.7167     -.57833     0.80060      2.3081      3.8244      5.2406    
  6.4748      7.4798      8.2434      8.7816      9.1287      9.3290      9.4282      9.4676      9.4676      9.4282    
  9.3290      9.1287      8.7816      8.2434      7.4798      6.4748      5.2406      3.8244      2.3081     0.80060    
 -.57833     -1.7167     -2.5250     -2.9436     -2.9048     -2.6967     -2.0864     -1.1172     0.13692      1.5755    
  3.0819      4.5412      5.8572      6.9657      7.8376      8.4758      8.9065      9.1696      9.3107      9.3739    
  9.3925      9.3739      9.3107      9.1696      8.9065      8.4758      7.8376      6.9657      5.8572      4.5412    
  3.0819      1.5755     0.13692     -1.1172     -2.0864     -2.6967     -2.6967     -2.6967     -2.2903     -1.5059    
 -.40134     0.93636      2.3984      3.8686      5.2412      6.4365      7.4087      8.1461      8.6643      8.9970    
  9.1878      9.2816      9.3188      9.3188      9.2816      9.1878      8.9970      8.6643      8.1461      7.4087    
  6.4365      5.2412      3.8686      2.3984     0.93636     -.40134     -1.5059     -2.2903     -2.0864     -2.2845    
 -2.0864     -1.5059     -.58586     0.60193      1.9607      3.3796      4.7502      5.9826      7.0170      7.8272    
  8.4168      8.8115      9.0500      9.1763      9.2327      9.2497      9.2327      9.1763      9.0500      8.8115    
  8.4168      7.8272      7.0170      5.9826      4.7502      3.3796      1.9607     0.60193     -.58586     -1.5059    
 -1.1172     -1.4893     -1.4893     -1.1172     -.40134     0.60193      1.8101      3.1224      4.4339      5.6504    
  6.7024      7.5512      8.1884      8.6301      8.9086      9.0646      9.1401      9.1711      9.1711      9.1401    
  9.0646      8.9086      8.6301      8.1884      7.5512      6.7024      5.6504      4.4339      3.1224      1.8101    
 0.60193     -.40134     0.13692     -.37037     -.54409     -.37037     0.13692     0.93636      1.9607      3.1224    
  4.3246      5.4749      6.4986      7.3479      8.0036      8.4718      8.7774      8.9561      9.0475      9.0892    
  9.1024      9.0892      9.0475      8.9561      8.7774      8.4718      8.0036      7.3479      6.4986      5.4749    
  4.3246      3.1224      1.9607     0.93636      1.5755     0.98351     0.67424     0.67424     0.98351      1.5755    
  2.3984      3.3796      4.4339      5.4749      6.4281      7.2401      7.8833      8.3547      8.6709      8.8617    
  8.9631      9.0115      9.0330      9.0330      9.0115      8.9631      8.8617      8.6709      8.3547      7.8833    
  7.2401      6.4281      5.4749      4.4339      3.3796      2.3984      3.0819      2.4619      2.0655      1.9293    
  2.0655      2.4619      3.0819      3.8686      4.7502      5.6504      6.4986      7.2401      7.8416      8.2923    
  8.6014      8.7919      8.8953      8.9452      8.9700      8.9780      8.9700      8.9452      8.8953      8.7919    
  8.6014      8.2923      7.8416      7.2401      6.4986      5.6504      4.7502      3.8686      4.5412      3.9471    
  3.5159      3.2893      3.2893      3.5159      3.9471      4.5412      5.2412      5.9826      6.7024      7.3479    
  7.8833      8.2923      8.5772      8.7547      8.8512      8.8969      8.9198      8.9304      8.9304      8.9198    
  8.8969      8.8512      8.7547      8.5772      8.2923      7.8833      7.3479      6.7024      5.9826      5.2412    
  5.8572      5.3328      4.9147      4.6454      4.5525      4.6454      4.9147      5.3328      5.8572      6.4365    
  7.0170      7.5512      8.0036      8.3547      8.6014      8.7547      8.8360      8.8715      8.8874      8.8955    
  8.8980      8.8955      8.8874      8.8715      8.8360      8.7547      8.6014      8.3547      8.0036      7.5512    
  7.0170      6.4365      6.9657      6.5388      6.1710      5.9012      5.7585      5.7585      5.9012      6.1710    
  6.5388      6.9657      7.4087      7.8272      8.1884      8.4718      8.6709      8.7919      8.8512      8.8715    
  8.8762      8.8771      8.8769      8.8769      8.8771      8.8762      8.8715      8.8512      8.7919      8.6709    
  8.4718      8.1884      7.8272      7.4087      7.8376      7.5195      7.2248      6.9860      6.8306      6.7767    
  6.8306      6.9860      7.2248      7.5195      7.8376      8.1461      8.4168      8.6301      8.7774      8.8617    
  8.8953      8.8969      8.8874      8.8771      8.8696      8.8669      8.8696      8.8771      8.8874      8.8969    
  8.8953      8.8617      8.7774      8.6301      8.4168      8.1461      8.4758      8.2634      8.0502      7.8613    
  7.7203      7.6449      7.6449      7.7203      7.8613      8.0502      8.2634      8.4758      8.6643      8.8115    
  8.9086      8.9561      8.9631      8.9452      8.9198      8.8955      8.8769      8.8669      8.8669      8.8769    
  8.8955      8.9198      8.9452      8.9631      8.9561      8.9086      8.8115      8.6643      8.9065      8.7865    
  8.6515      8.5194      8.4087      8.3351      8.3094      8.3351      8.4087      8.5194      8.6515      8.7865    
  8.9065      8.9970      9.0500      9.0646      9.0475      9.0115      8.9700      8.9304      8.8980      8.8769    
  8.8696      8.8769      8.8980      8.9304      8.9700      9.0115      9.0475      9.0646      9.0500      8.9970    
  9.1696      9.1230      9.0552      8.9775      8.9032      8.8451      8.8133      8.8133      8.8451      8.9032    
  8.9775      9.0552      9.1230      9.1696      9.1878      9.1763      9.1401      9.0892      9.0330      8.9780    
  8.9304      8.8955      8.8771      8.8771      8.8955      8.9304      8.9780      9.0330      9.0892      9.1401    
  9.1763      9.1878      9.3107      9.3165      9.3006      9.2687      9.2294      9.1925      9.1663      9.1569    
  9.1663      9.1925      9.2294      9.2687      9.3006      9.3165      9.3107      9.2816      9.2327      9.1711    
  9.1024      9.0330      8.9700      8.9198      8.8874      8.8762      8.8874      8.9198      8.9700      9.0330    
  9.1024      9.1711      9.2327      9.2816      9.3739      9.4121      9.4317      9.4340      9.4240      9.4079    
  9.3926      9.3835      9.3835      9.3926      9.4079      9.4240      9.4340      9.4317      9.4121      9.3739    
  9.3188      9.2497      9.1711      9.0892      9.0115      8.9452      8.8969      8.8715      8.8715      8.8969    
  8.9452      9.0115      9.0892      9.1711      9.2497      9.3188      9.3925      9.4503      9.4910      9.5158    
  9.5268      9.5279      9.5240      9.5195      9.5177      9.5195      9.5240      9.5279      9.5268      9.5158    
  9.4910      9.4503      9.3925      9.3188      9.2327      9.1401      9.0475      8.9631      8.8953      8.8512    
  8.8360      8.8512      8.8953      8.9631      9.0475      9.1401      9.2327      9.3188      9.3739      9.4503    
  9.5090      9.5499      9.5754      9.5888      9.5942      9.5954      9.5952      9.5952      9.5954      9.5942    
  9.5888      9.5754      9.5499      9.5090      9.4503      9.3739      9.2816      9.1763      9.0646      8.9561    
  8.8617      8.7919      8.7547      8.7547      8.7919      8.8617      8.9561      9.0646      9.1763      9.2816    
  9.3107      9.4121      9.4910      9.5499      9.5908      9.6167      9.6314      9.6388      9.6418      9.6426    
  9.6418      9.6388      9.6314      9.6167      9.5908      9.5499      9.4910      9.4121      9.3107      9.1878    
  9.0500      8.9086      8.7774      8.6709      8.6014      8.5772      8.6014      8.6709      8.7774      8.9086    
  9.0500      9.1878      9.1696      9.3165      9.4317      9.5158      9.5754      9.6167      9.6436      9.6599    
  9.6688      9.6727      9.6727      9.6688      9.6599      9.6436      9.6167      9.5754      9.5158      9.4317    
  9.3165      9.1696      8.9970      8.8115      8.6301      8.4718      8.3547      8.2923      8.2923      8.3547    
  8.4718      8.6301      8.8115      8.9970      8.9065      9.1230      9.3006      9.4340      9.5268      9.5888    
  9.6314      9.6599      9.6776      9.6873      9.6903      9.6873      9.6776      9.6599      9.6314      9.5888    
  9.5268      9.4340      9.3006      9.1230      8.9065      8.6643      8.4168      8.1884      8.0036      7.8833    
  7.8416      7.8833      8.0036      8.1884      8.4168      8.6643      8.4758      8.7865      9.0552      9.2687    
  9.4240      9.5279      9.5942      9.6388      9.6688      9.6873      9.6961      9.6961      9.6873      9.6688    
  9.6388      9.5942      9.5279      9.4240      9.2687      9.0552      8.7865      8.4758      8.1461      7.8272    
  7.5512      7.3479      7.2401      7.2401      7.3479      7.5512      7.8272      8.1461      7.8376      8.2634    
  8.6515      8.9775      9.2294      9.4079      9.5240      9.5954      9.6418      9.6727      9.6903      9.6961    
  9.6903      9.6727      9.6418      9.5954      9.5240      9.4079      9.2294      8.9775      8.6515      8.2634    
  7.8376      7.4087      7.0170      6.7024      6.4986      6.4281      6.4986      6.7024      7.0170      7.4087    
  6.9657      7.5195      8.0502      8.5194      8.9032      9.1925      9.3926      9.5195      9.5952      9.6426    
  9.6727      9.6873      9.6873      9.6727      9.6426      9.5952      9.5195      9.3926      9.1925      8.9032    
  8.5194      8.0502      7.5195      6.9657      6.4365      5.9826      5.6504      5.4749      5.4749      5.6504    
  5.9826      6.4365      5.8572      6.5388      7.2248      7.8613      8.4087      8.8451      9.1663      9.3835    
  9.5177      9.5952      9.6418      9.6688      9.6776      9.6688      9.6418      9.5952      9.5177      9.3835    
  9.1663      8.8451      8.4087      7.8613      7.2248      6.5388      5.8572      5.2412      4.7502      4.4339    
  4.3246      4.4339      4.7502      5.2412      4.5412      5.3328      6.1710      6.9860      7.7203      8.3351    
  8.8133      9.1569      9.3835      9.5195      9.5954      9.6388      9.6599      9.6599      9.6388      9.5954    
  9.5195      9.3835      9.1569      8.8133      8.3351      7.7203      6.9860      6.1710      5.3328      4.5412    
  3.8686      3.3796      3.1224      3.1224      3.3796      3.8686      3.0819      3.9471      4.9147      5.9012    
  6.8306      7.6449      8.3094      8.8133      9.1663      9.3926      9.5240      9.5942      9.6314      9.6436    
  9.6314      9.5942      9.5240      9.3926      9.1663      8.8133      8.3094      7.6449      6.8306      5.9012    
  4.9147      3.9471      3.0819      2.3984      1.9607      1.8101      1.9607      2.3984      1.5755      2.4619    
  3.5159      4.6454      5.7585      6.7767      7.6449      8.3351      8.8451      9.1925      9.4079      9.5279    
  9.5888      9.6167      9.6167      9.5888      9.5279      9.4079      9.1925      8.8451      8.3351      7.6449    
  6.7767      5.7585      4.6454      3.5159      2.4619      1.5755     0.93636     0.60193     0.60193     0.93636    
 0.13692     0.98351      2.0655      3.2893      4.5525      5.7585      6.8306      7.7203      8.4087      8.9032    
  9.2294      9.4240      9.5268      9.5754      9.5908      9.5754      9.5268      9.4240      9.2294      8.9032    
  8.4087      7.7203      6.8306      5.7585      4.5525      3.2893      2.0655     0.98351     0.13692     -.40134    
 -.58586     -.40134     -1.1172     -.37037     0.67424      1.9293      3.2893      4.6454      5.9012      6.9860    
  7.8613      8.5194      8.9775      9.2687      9.4340      9.5158      9.5499      9.5499      9.5158      9.4340    
  9.2687      8.9775      8.5194      7.8613      6.9860      5.9012      4.6454      3.2893      1.9293     0.67424    
 -.37037     -1.1172     -1.5059     -1.5059     -2.0864     -1.4893     -.54409     0.67424      2.0655      3.5159    
  4.9147      6.1710      7.2248      8.0502      8.6515      9.0552      9.3006      9.4317      9.4910      9.5090    
  9.4910      9.4317      9.3006      9.0552      8.6515      8.0502      7.2248      6.1710      4.9147      3.5159    
  2.0655     0.67424     -.54409     -1.4893     -2.0864     -2.2903     -2.6967     -2.2845     -1.4893     -.37037    
 0.98351      2.4619      3.9471      5.3328      6.5388      7.5195      8.2634      8.7865      9.1230      9.3165    
  9.4121      9.4503      9.4503      9.4121      9.3165      9.1230      8.7865      8.2634      7.5195      6.5388    
  5.3328      3.9471      2.4619     0.98351     -.37037     -1.4893     -2.2845     -2.6967     -2.1718     -1.9736    
 -1.3933     -.47394     0.71245      2.0689      3.4845      4.8512      6.0795      7.1099      7.9166      8.5035    
  8.8964      9.1339      9.2599      9.3166      9.3337      9.3166      9.2599      9.1339      8.8964      8.5035    
  7.9166      7.1099      6.0795      4.8512      3.4845      2.0689     0.71245     -.47394     -1.3933     -1.9736    
 -1.9736     -1.9736     -1.5876     -.84369     0.20120      1.4629      2.8374      4.2150      5.4968      6.6088    
  7.5095      8.1888      8.6625      8.9639      9.1345      9.2178      9.2515      9.2515      9.2178      9.1345    
  8.9639      8.6625      8.1888      7.5095      6.6088      5.4968      4.2150      2.8374      1.4629     0.20120    
 -.84370     -1.5876     -1.3933     -1.5812     -1.3933     -.84369     0.25776E-01  1.1454      2.4224      3.7519    
  5.0319      6.1787      7.1373      7.8843      8.4241      8.7822      8.9960      9.1077      9.1578      9.1733    
  9.1578      9.1077      8.9960      8.7822      8.4241      7.8843      7.1373      6.1787      5.0319      3.7519    
  2.4224      1.1454     0.25776E-01 -.84370     -.47394     -.82526     -.82526     -.47394     0.20120      1.1454    
  2.2795      3.5081      4.7320      5.8636      6.8383      7.6208      8.2044      8.6053      8.8550      8.9928    
  9.0588      9.0866      9.0866      9.0588      8.9928      8.8550      8.6053      8.2044      7.6208      6.8383    
  5.8636      4.7320      3.5081      2.2795      1.1454     0.20120     0.71245     0.23557     0.72130E-01 0.23557    
 0.71245      1.4629      2.4224      3.5081      4.6285      5.6971      6.6445      7.4267      8.0267      8.4513    
  8.7250      8.8823      8.9614      8.9979      9.0096      8.9979      8.9614      8.8823      8.7250      8.4513    
  8.0267      7.4267      6.6445      5.6971      4.6285      3.5081      2.4224      1.4629      2.0689      1.5152    
  1.2256      1.2256      1.5152      2.0689      2.8374      3.7519      4.7320      5.6971      6.5774      7.3238    
  7.9111      8.3375      8.6198      8.7869      8.8736      8.9147      8.9334      8.9334      8.9147      8.8736    
  8.7869      8.6198      8.3375      7.9111      7.3238      6.5774      5.6971      4.7320      3.7519      2.8374    
  3.4845      2.9078      2.5388      2.4118      2.5388      2.9078      3.4845      4.2150      5.0319      5.8636    
  6.6445      7.3238      7.8710      8.2770      8.5513      8.7166      8.8035      8.8444      8.8650      8.8716    
  8.8650      8.8444      8.8035      8.7166      8.5513      8.2770      7.8710      7.3238      6.6445      5.8636    
  5.0319      4.2150      4.8512      4.3023      3.9033      3.6935      3.6935      3.9033      4.3023      4.8512    
  5.4968      6.1787      6.8383      7.4267      7.9111      8.2770      8.5275      8.6793      8.7582      8.7934    
  8.8108      8.8188      8.8188      8.8108      8.7934      8.7582      8.6793      8.5275      8.2770      7.9111    
  7.4267      6.8383      6.1787      5.4968      6.0795      5.5988      5.2150      4.9674      4.8819      4.9674    
  5.2150      5.5988      6.0795      6.6088      7.1373      7.6208      8.0267      8.3375      8.5513      8.6793    
  8.7425      8.7666      8.7760      8.7804      8.7817      8.7804      8.7760      8.7666      8.7425      8.6793    
  8.5513      8.3375      8.0267      7.6208      7.1373      6.6088      7.1099      6.7231      6.3889      6.1432    
  6.0132      6.0132      6.1432      6.3889      6.7231      7.1099      7.5095      7.8843      8.2044      8.4513    
  8.6198      8.7166      8.7582      8.7666      8.7641      8.7602      8.7577      8.7577      8.7602      8.7641    
  8.7666      8.7582      8.7166      8.6198      8.4513      8.2044      7.8843      7.5095      7.9166      7.6335    
  7.3697      7.1553      7.0154      6.9669      7.0154      7.1553      7.3697      7.6335      7.9166      8.1888    
  8.4241      8.6053      8.7250      8.7869      8.8035      8.7934      8.7760      8.7602      8.7494      8.7455    
  8.7494      8.7602      8.7760      8.7934      8.8035      8.7869      8.7250      8.6053      8.4241      8.1888    
  8.5035      8.3205      8.1344      7.9684      7.8438      7.7771      7.7771      7.8438      7.9684      8.1344    
  8.3205      8.5035      8.6625      8.7822      8.8550      8.8823      8.8736      8.8444      8.8108      8.7804    
  8.7577      8.7455      8.7455      8.7577      8.7804      8.8108      8.8444      8.8736      8.8823      8.8550    
  8.7822      8.6625      8.8964      8.8003      8.6883      8.5765      8.4818      8.4184      8.3962      8.4184    
  8.4818      8.5765      8.6883      8.8003      8.8964      8.9639      8.9960      8.9928      8.9614      8.9147    