Si beta-tin                             
   2.10000000000000     
     0.991728   -0.000000   -0.000000
    -0.495864    0.858861   -0.000000
     0.000000   -0.000000    1.660347
    S
     2
Direct
  0.000000 -0.000000  0.000000
  0.333333  0.666667  0.500000
 
   32   32   48
 -.31615902439E+01 -.29518669187E+01 -.23361174584E+01 -.13559413055E+01 -.82871606780E-01
 0.13842813127E+01 0.29297507655E+01 0.44375212379E+01 0.58091227697E+01 0.69764995647E+01
 0.79066210013E+01 0.85983417697E+01 0.90745618617E+01 0.93730425977E+01 0.95380343542E+01
 0.96134547051E+01 0.96351180825E+01 0.96134554543E+01 0.95380354880E+01 0.93730435137E+01
 0.90745619308E+01 0.85983405594E+01 0.79066184365E+01 0.69764959709E+01 0.58091187831E+01
 0.44375176131E+01 0.29297481435E+01 0.13842800276E+01 -.82871618629E-01 -.13559404642E+01
 -.23361163818E+01 -.29518662005E+01 -.29518662005E+01 -.29518641284E+01 -.25411106978E+01
 -.17467479627E+01 -.62496490907E+00 0.73905235010E+00 0.22375240254E+01 0.37539116467E+01
 0.51806607794E+01 0.64348491813E+01 0.74668861468E+01 0.82609336049E+01 0.88290585773E+01
 0.92025032997E+01 0.94228675550E+01 0.95345775593E+01 0.95787152257E+01 0.95787148077E+01
 0.95345763965E+01 0.94228658753E+01 0.92025013473E+01 0.88290564687E+01 0.82609312230E+01
 0.74668831249E+01 0.64348449971E+01 0.51806549412E+01 0.37539039145E+01 0.22375145941E+01
 0.73904192616E+00 -.62497517679E+00 -.17467566917E+01 -.25411165708E+01 -.23361163818E+01
 -.25370818081E+01 -.23361089576E+01 -.17467433139E+01 -.81054239563E+00 0.40210919127E+00
 0.17954391144E+01 0.32586505452E+01 0.46818271159E+01 0.59724753542E+01 0.70672798849E+01
 0.79361468657E+01 0.85790974985E+01 0.90188406917E+01 0.92920960545E+01 0.94416377402E+01
 0.95097524761E+01 0.95297288409E+01 0.95097507212E+01 0.94416348380E+01 0.92920929551E+01
 0.90188382583E+01 0.85790960795E+01 0.79361460399E+01 0.70672784936E+01 0.59724718371E+01
 0.46818200553E+01 0.32586392438E+01 0.17954240085E+01 0.40209194312E+00 -.81055918208E+00
 -.17467566917E+01 -.13559404642E+01 -.17352006393E+01 -.17351962852E+01 -.13559283657E+01
 -.62495795435E+00 0.40211073785E+00 0.16435099503E+01 0.29986432410E+01 0.43612442778E+01
 0.56351284223E+01 0.67475265776E+01 0.76561407565E+01 0.83490408720E+01 0.88392336094E+01
 0.91567914826E+01 0.93408904704E+01 0.94329280234E+01 0.94703050140E+01 0.94703040359E+01
 0.94329255388E+01 0.93408876364E+01 0.91567896602E+01 0.88392337380E+01 0.83490429620E+01
 0.76561437046E+01 0.67475284034E+01 0.56351268721E+01 0.43612376119E+01 0.29986309425E+01
 0.16434931067E+01 0.40209194312E+00 -.62497517679E+00 -.82871618629E-01 -.60336551699E+00
 -.78142408222E+00 -.60335842398E+00 -.82859217234E-01 0.73905658540E+00 0.17954374840E+01
 0.29986403602E+01 0.42507042639E+01 0.54572420764E+01 0.65409106356E+01 0.74504461106E+01
 0.81633110957E+01 0.86826322652E+01 0.90307288003E+01 0.92416340541E+01 0.93541570900E+01
 0.94060427305E+01 0.94221871653E+01 0.94060412964E+01 0.93541551450E+01 0.92416330567E+01
 0.90307301123E+01 0.86826365093E+01 0.81633177492E+01 0.74504535032E+01 0.65409163801E+01
 0.54572438101E+01 0.42507004611E+01 0.29986309425E+01 0.17954240085E+01 0.73904192616E+00
 0.13842800276E+01 0.77207128626E+00 0.45270292270E+00 0.45270499594E+00 0.77207681144E+00
 0.13842871400E+01 0.22375208449E+01 0.32586423633E+01 0.43612362057E+01 0.54572377668E+01
 0.64694700950E+01 0.73415408800E+01 0.80426141248E+01 0.85667174818E+01 0.89280674298E+01
 0.91545438498E+01 0.92810341816E+01 0.93435613232E+01 0.93711343699E+01 0.93711337219E+01
 0.93435598570E+01 0.92810331439E+01 0.91545447647E+01 0.89280714759E+01 0.85667249627E+01
 0.80426242271E+01 0.73415518180E+01 0.64694796076E+01 0.54572438101E+01 0.43612376119E+01
 0.32586392438E+01 0.22375145941E+01 0.29297481435E+01 0.22821873531E+01 0.18691081811E+01
 0.17272407518E+01 0.18691082981E+01 0.22821869509E+01 0.29297462006E+01 0.37538994388E+01
 0.46818125148E+01 0.56351164891E+01 0.65409041786E+01 0.73415393992E+01 0.80007669467E+01
 0.85050792515E+01 0.88609822425E+01 0.90897843389E+01 0.92215678057E+01 0.92894675161E+01
 0.93233250966E+01 0.93343477613E+01 0.93233236651E+01 0.92894654895E+01 0.92215665751E+01
 0.90897853797E+01 0.88609866095E+01 0.85050872056E+01 0.80007778337E+01 0.73415518180E+01
 0.65409163801E+01 0.56351268721E+01 0.46818200553E+01 0.37539039145E+01 0.44375176131E+01
 0.38095211657E+01 0.33549370384E+01 0.31164442763E+01 0.31164425385E+01 0.33549319135E+01
 0.38095129378E+01 0.44375068040E+01 0.51806423455E+01 0.59724585093E+01 0.67475155718E+01
 0.74504424047E+01 0.80426158921E+01 0.85050822437E+01 0.88376624984E+01 0.90552545550E+01
 0.91827276617E+01 0.92495904299E+01 0.92845021928E+01 0.93011902883E+01 0.93011892626E+01
 0.92844994479E+01 0.92495868800E+01 0.91827245778E+01 0.90552532577E+01 0.88376640483E+01
 0.85050872056E+01 0.80426242271E+01 0.74504535032E+01 0.67475284034E+01 0.59724718371E+01
 0.51806549412E+01 0.58091187831E+01 0.52459256121E+01 0.47987675000E+01 0.45114266316E+01
 0.44123639348E+01 0.45114206533E+01 0.47987565489E+01 0.52459114838E+01 0.58091036861E+01
 0.64348311105E+01 0.70672675646E+01 0.76561367758E+01 0.81633150645E+01 0.85667260496E+01
 0.88609904917E+01 0.90552587229E+01 0.91692284160E+01 0.92284286502E+01 0.92592489877E+01
 0.92763134654E+01 0.92818313575E+01 0.92763114280E+01 0.92592451276E+01 0.92284234268E+01
 0.91692225668E+01 0.90552532577E+01 0.88609866095E+01 0.85667249627E+01 0.81633177492E+01
 0.76561437046E+01 0.70672784936E+01 0.64348449971E+01 0.69764959709E+01 0.65082267896E+01
 0.61072712397E+01 0.58142758703E+01 0.56596681454E+01 0.56596645410E+01 0.58142659321E+01
 0.61072573535E+01 0.65082122055E+01 0.69764839439E+01 0.74668760949E+01 0.79361450848E+01
 0.83490476648E+01 0.86826452480E+01 0.89280820140E+01 0.90897955506E+01 0.91827328405E+01
 0.92284291324E+01 0.92504951938E+01 0.92630226640E+01 0.92687804760E+01 0.92687800446E+01
 0.92630211090E+01 0.92504918793E+01 0.92284234268E+01 0.91827245778E+01 0.90897853797E+01
 0.89280714759E+01 0.86826365093E+01 0.83490429620E+01 0.79361460399E+01 0.74668831249E+01
 0.79066184365E+01 0.75468528360E+01 0.72169053239E+01 0.69514285787E+01 0.67793537563E+01
 0.67197741118E+01 0.67793474743E+01 0.69514180551E+01 0.72168940054E+01 0.75468445122E+01
 0.79066160863E+01 0.82609361371E+01 0.85791075293E+01 0.88392492794E+01 0.90307464062E+01
 0.91545586297E+01 0.92215759199E+01 0.92495912147E+01 0.92592455040E+01 0.92630195363E+01
 0.92641886859E+01 0.92644049628E+01 0.92641901237E+01 0.92630211090E+01 0.92592451276E+01
 0.92495868800E+01 0.92215665751E+01 0.91545447647E+01 0.90307301123E+01 0.88392337380E+01
 0.85790960795E+01 0.82609312230E+01 0.85983405594E+01 0.83461430711E+01 0.80977704368E+01
 0.78805404826E+01 0.77195636317E+01 0.76339347110E+01 0.76339325978E+01 0.77195582732E+01
 0.78805344796E+01 0.80977670980E+01 0.83461452415E+01 0.85983495874E+01 0.88290716635E+01
 0.90188570254E+01 0.91568082744E+01 0.92416478160E+01 0.92810415202E+01 0.92894668910E+01
 0.92844953402E+01 0.92763047732E+01 0.92687742506E+01 0.92644026967E+01 0.92644049628E+01
 0.92687800446E+01 0.92763114280E+01 0.92844994479E+01 0.92894654895E+01 0.92810331439E+01
 0.92416330567E+01 0.91567896602E+01 0.90188382583E+01 0.88290564687E+01 0.90745619308E+01
 0.89183886664E+01 0.87502797708E+01 0.85900814163E+01 0.84579218414E+01 0.83709460132E+01
 0.83406134093E+01 0.83709454467E+01 0.84579218355E+01 0.85900837500E+01 0.87502860969E+01
 0.89183997170E+01 0.90745770051E+01 0.92025182877E+01 0.92921086523E+01 0.93408989179E+01
 0.93541597629E+01 0.93435572458E+01 0.93233152037E+01 0.93011779344E+01 0.92818208953E+01
 0.92687742506E+01 0.92641886859E+01 0.92687804760E+01 0.92818313575E+01 0.93011892626E+01
 0.93233236651E+01 0.93435598570E+01 0.93541551450E+01 0.93408876364E+01 0.92920929551E+01
 0.92025013473E+01 0.93730435137E+01 0.92950206424E+01 0.91975386360E+01 0.90935981560E+01
 0.89980842726E+01 0.89251247166E+01 0.88856680268E+01 0.88856695475E+01 0.89251292619E+01
 0.89980917301E+01 0.90936081616E+01 0.91975504058E+01 0.92950328916E+01 0.93730545407E+01
 0.94228738339E+01 0.94416381481E+01 0.94329233283E+01 0.94060337342E+01 0.93711221227E+01
 0.93343343979E+01 0.93011779344E+01 0.92763047732E+01 0.92630195363E+01 0.92630226640E+01
 0.92763134654E+01 0.93011902883E+01 0.93343477613E+01 0.93711337219E+01 0.94060412964E+01
 0.94329255388E+01 0.94416348380E+01 0.94228658753E+01 0.95380354880E+01 0.95177525154E+01
 0.94765476047E+01 0.94216154705E+01 0.93629272507E+01 0.93112059075E+01 0.92758759177E+01
 0.92633458523E+01 0.92758816331E+01 0.93112160527E+01 0.93629395663E+01 0.94216272616E+01
 0.94765563598E+01 0.95177564438E+01 0.95380338451E+01 0.95345695340E+01 0.95097398792E+01
 0.94702909667E+01 0.94221737120E+01 0.93711221227E+01 0.93233152037E+01 0.92844953402E+01
 0.92592455040E+01 0.92504951938E+01 0.92592489877E+01 0.92845021928E+01 0.93233250966E+01
 0.93711343699E+01 0.94221871653E+01 0.94703040359E+01 0.95097507212E+01 0.95345763965E+01
 0.96134554543E+01 0.96310499884E+01 0.96302102682E+01 0.96135621953E+01 0.95868543003E+01
 0.95574936242E+01 0.95328969902E+01 0.95189720118E+01 0.95189754205E+01 0.95329061087E+01
 0.95575054715E+01 0.95868649349E+01 0.96135679111E+01 0.96302086932E+01 0.96310407468E+01
 0.96134401969E+01 0.95786966239E+01 0.95297112656E+01 0.94702909667E+01 0.94060337342E+01
 0.93435572458E+01 0.92894668910E+01 0.92495912147E+01 0.92284291324E+01 0.92284286502E+01
 0.92495904299E+01 0.92894675161E+01 0.93435613232E+01 0.94060427305E+01 0.94703050140E+01
 0.95297288409E+01 0.95787148077E+01 0.96351180825E+01 0.96759886974E+01 0.97008243286E+01
 0.97108919247E+01 0.97087926137E+01 0.96990437384E+01 0.96869770184E+01 0.96774703223E+01
 0.96739021914E+01 0.96774755321E+01 0.96869851898E+01 0.96990511517E+01 0.97087953675E+01
 0.97108873044E+01 0.97008117890E+01 0.96759701265E+01 0.96350972545E+01 0.95786966239E+01
 0.95097398792E+01 0.94329233283E+01 0.93541597629E+01 0.92810415202E+01 0.92215759199E+01
 0.91827328405E+01 0.91692284160E+01 0.91827276617E+01 0.92215678057E+01 0.92810341816E+01
 0.93541570900E+01 0.94329280234E+01 0.95097524761E+01 0.95787152257E+01 0.96134547051E+01
 0.96759875388E+01 0.97216405281E+01 0.97509475081E+01 0.97664159994E+01 0.97717983402E+01
 0.97711466976E+01 0.97681781096E+01 0.97658703519E+01 0.97658716157E+01 0.97681810512E+01
 0.97711491004E+01 0.97717975022E+01 0.97664098471E+01 0.97509355389E+01 0.97216242327E+01
 0.96759701265E+01 0.96134401969E+01 0.95345695340E+01 0.94416381481E+01 0.93408989179E+01
 0.92416478160E+01 0.91545586297E+01 0.90897955506E+01 0.90552587229E+01 0.90552545550E+01
 0.90897843389E+01 0.91545438498E+01 0.92416340541E+01 0.93408904704E+01 0.94416377402E+01
 0.95345775593E+01 0.95380343542E+01 0.96310469408E+01 0.97008214971E+01 0.97509462577E+01
 0.97844929224E+01 0.98045642790E+01 0.98149624220E+01 0.98193728674E+01 0.98207596339E+01
 0.98210074423E+01 0.98207586840E+01 0.98193704540E+01 0.98149578195E+01 0.98045570325E+01
 0.97844833117E+01 0.97509355389E+01 0.97008117890E+01 0.96310407468E+01 0.95380338451E+01
 0.94228738339E+01 0.92921086523E+01 0.91568082744E+01 0.90307464062E+01 0.89280820140E+01
 0.88609904917E+01 0.88376624984E+01 0.88609822425E+01 0.89280674298E+01 0.90307288003E+01
 0.91567914826E+01 0.92920960545E+01 0.94228675550E+01 0.93730425977E+01 0.95177487005E+01
 0.96302056206E+01 0.97108886625E+01 0.97664147655E+01 0.98045641801E+01 0.98293446325E+01
 0.98443464322E+01 0.98525956682E+01 0.98561921257E+01 0.98561904472E+01 0.98525909350E+01
 0.98443395085E+01 0.98293368212E+01 0.98045570325E+01 0.97664098471E+01 0.97108873044E+01
 0.96302086932E+01 0.95177564438E+01 0.93730545407E+01 0.92025182877E+01 0.90188570254E+01
 0.88392492794E+01 0.86826452480E+01 0.85667260496E+01 0.85050822437E+01 0.85050792515E+01
 0.85667174818E+01 0.86826322652E+01 0.88392336094E+01 0.90188406917E+01 0.92025032997E+01
 0.90745618617E+01 0.92950174447E+01 0.94765427672E+01 0.96135581850E+01 0.97087907949E+01
 0.97717982274E+01 0.98149627380E+01 0.98443465271E+01 0.98631007052E+01 0.98734898177E+01
 0.98768130045E+01 0.98734858641E+01 0.98630941032E+01 0.98443395085E+01 0.98149578195E+01
 0.97717975022E+01 0.97087953675E+01 0.96135679111E+01 0.94765563598E+01 0.92950328916E+01
 0.90745770051E+01 0.88290716635E+01 0.85791075293E+01 0.83490476648E+01 0.81633150645E+01
 0.80426158921E+01 0.80007669467E+01 0.80426141248E+01 0.81633110957E+01 0.83490408720E+01
 0.85790974985E+01 0.88290585773E+01 0.85983417697E+01 0.89183871896E+01 0.91975351856E+01
 0.94216122166E+01 0.95868529066E+01 0.96990440809E+01 0.97711474492E+01 0.98193731160E+01
 0.98525956626E+01 0.98734900691E+01 0.98835972175E+01 0.98835955614E+01 0.98734858641E+01
 0.98525909350E+01 0.98193704540E+01 0.97711491004E+01 0.96990511517E+01 0.95868649349E+01
 0.94216272616E+01 0.91975504058E+01 0.89183997170E+01 0.85983495874E+01 0.82609361371E+01
 0.79361450848E+01 0.76561367758E+01 0.74504424047E+01 0.73415393992E+01 0.73415408800E+01
 0.74504461106E+01 0.76561407565E+01 0.79361468657E+01 0.82609336049E+01 0.79066210013E+01
 0.83461436790E+01 0.87502785612E+01 0.90935967385E+01 0.93629271864E+01 0.95574949581E+01
 0.96869784099E+01 0.97681784446E+01 0.98207593094E+01 0.98561925021E+01 0.98768146172E+01
 0.98835972175E+01 0.98768130045E+01 0.98561904472E+01 0.98207586840E+01 0.97681810512E+01
 0.96869851898E+01 0.95575054715E+01 0.93629395663E+01 0.90936081616E+01 0.87502860969E+01
 0.83461452415E+01 0.79066160863E+01 0.74668760949E+01 0.70672675646E+01 0.67475155718E+01
 0.65409041786E+01 0.64694700950E+01 0.65409106356E+01 0.67475265776E+01 0.70672798849E+01
 0.74668861468E+01 0.69764995647E+01 0.75468549487E+01 0.80977711672E+01 0.85900819475E+01
 0.89980858693E+01 0.93112085652E+01 0.95328992493E+01 0.96774707509E+01 0.97658692846E+01
 0.98210069913E+01 0.98561925021E+01 0.98734900691E+01 0.98734898177E+01 0.98561921257E+01
 0.98210074423E+01 0.97658716157E+01 0.96774755321E+01 0.95329061087E+01 0.93112160527E+01
 0.89980917301E+01 0.85900837500E+01 0.80977670980E+01 0.75468445122E+01 0.69764839439E+01
 0.64348311105E+01 0.59724585093E+01 0.56351164891E+01 0.54572377668E+01 0.54572420764E+01
 0.56351284223E+01 0.59724753542E+01 0.64348491813E+01 0.58091227697E+01 0.65082290201E+01
 0.72169065236E+01 0.78805419036E+01 0.84579245774E+01 0.89251286082E+01 0.92758792257E+01
 0.95189727338E+01 0.96739001670E+01 0.97658692846E+01 0.98207593094E+01 0.98525956626E+01
 0.98631007052E+01 0.98525956682E+01 0.98207596339E+01 0.97658703519E+01 0.96739021914E+01
 0.95189754205E+01 0.92758816331E+01 0.89251292619E+01 0.84579218355E+01 0.78805344796E+01
 0.72168940054E+01 0.65082122055E+01 0.58091036861E+01 0.51806423455E+01 0.46818125148E+01
 0.43612362057E+01 0.42507042639E+01 0.43612442778E+01 0.46818271159E+01 0.51806607794E+01
 0.44375212379E+01 0.52459262109E+01 0.61072707005E+01 0.69514288981E+01 0.77195661618E+01
 0.83709505495E+01 0.88856724571E+01 0.92633473263E+01 0.95189727338E+01 0.96774707509E+01
 0.97681784446E+01 0.98193731160E+01 0.98443465271E+01 0.98443464322E+01 0.98193728674E+01
 0.97681781096E+01 0.96774703223E+01 0.95189720118E+01 0.92633458523E+01 0.88856695475E+01
 0.83709454467E+01 0.77195582732E+01 0.69514180551E+01 0.61072573535E+01 0.52459114838E+01
 0.44375068040E+01 0.37538994388E+01 0.32586423633E+01 0.29986403602E+01 0.29986432410E+01
 0.32586505452E+01 0.37539116467E+01 0.29297507655E+01 0.38095186318E+01 0.47987630303E+01
 0.58142727913E+01 0.67793542702E+01 0.76339389090E+01 0.83406188907E+01 0.88856724571E+01
 0.92758792257E+01 0.95328992493E+01 0.96869784099E+01 0.97711474492E+01 0.98149627380E+01
 0.98293446325E+01 0.98149624220E+01 0.97711466976E+01 0.96869770184E+01 0.95328969902E+01
 0.92758759177E+01 0.88856680268E+01 0.83406134093E+01 0.76339325978E+01 0.67793474743E+01
 0.58142659321E+01 0.47987565489E+01 0.38095129378E+01 0.29297462006E+01 0.22375208449E+01
 0.17954374840E+01 0.16435099503E+01 0.17954391144E+01 0.22375240254E+01 0.13842813127E+01
 0.22821810069E+01 0.33549272933E+01 0.45114183750E+01 0.56596649546E+01 0.67197768622E+01
 0.76339389090E+01 0.83709505495E+01 0.89251286082E+01 0.93112085652E+01 0.95574949581E+01
 0.96990440809E+01 0.97717982274E+01 0.98045641801E+01 0.98045642790E+01 0.97717983402E+01
 0.96990437384E+01 0.95574936242E+01 0.93112059075E+01 0.89251247166E+01 0.83709460132E+01
 0.76339347110E+01 0.67197741118E+01 0.56596645410E+01 0.45114206533E+01 0.33549319135E+01
 0.22821869509E+01 0.13842871400E+01 0.73905658540E+00 0.40211073785E+00 0.40210919127E+00
 0.73905235010E+00 -.82871606780E-01 0.77206160640E+00 0.18690932845E+01 0.31164303239E+01
 0.44123561001E+01 0.56596649546E+01 0.67793542702E+01 0.77195661618E+01 0.84579245774E+01
 0.89980858693E+01 0.93629271864E+01 0.95868529066E+01 0.97087907949E+01 0.97664147655E+01
 0.97844929224E+01 0.97664159994E+01 0.97087926137E+01 0.95868543003E+01 0.93629272507E+01
 0.89980842726E+01 0.84579218414E+01 0.77195636317E+01 0.67793537563E+01 0.56596681454E+01
 0.44123639348E+01 0.31164425385E+01 0.18691082981E+01 0.77207681144E+00 -.82859217234E-01
 -.62495795435E+00 -.81054239563E+00 -.62496490907E+00 -.13559413055E+01 -.60337691785E+00
 0.45268465753E+00 0.17272222497E+01 0.31164303239E+01 0.45114183750E+01 0.58142727913E+01
 0.69514288981E+01 0.78805419036E+01 0.85900819475E+01 0.90935967385E+01 0.94216122166E+01
 0.96135581850E+01 0.97108886625E+01 0.97509462577E+01 0.97509475081E+01 0.97108919247E+01
 0.96135621953E+01 0.94216154705E+01 0.90935981560E+01 0.85900814163E+01 0.78805404826E+01
 0.69514285787E+01 0.58142758703E+01 0.45114266316E+01 0.31164442763E+01 0.17272407518E+01
 0.45270499594E+00 -.60335842398E+00 -.13559283657E+01 -.17467433139E+01 -.17467479627E+01
 -.23361174584E+01 -.17352114084E+01 -.78144260667E+00 0.45268465753E+00 0.18690932845E+01
 0.33549272933E+01 0.47987630303E+01 0.61072707005E+01 0.72169065236E+01 0.80977711672E+01
 0.87502785612E+01 0.91975351856E+01 0.94765427672E+01 0.96302056206E+01 0.97008214971E+01
 0.97216405281E+01 0.97008243286E+01 0.96302102682E+01 0.94765476047E+01 0.91975386360E+01
 0.87502797708E+01 0.80977704368E+01 0.72169053239E+01 0.61072712397E+01 0.47987675000E+01
 0.33549370384E+01 0.18691081811E+01 0.45270292270E+00 -.78142408222E+00 -.17351962852E+01
 -.23361089576E+01 -.25411106978E+01 -.29518669187E+01 -.25370895024E+01 -.17352114084E+01
 -.60337691785E+00 0.77206160640E+00 0.22821810069E+01 0.38095186318E+01 0.52459262109E+01
 0.65082290201E+01 0.75468549487E+01 0.83461436790E+01 0.89183871896E+01 0.92950174447E+01
 0.95177487005E+01 0.96310469408E+01 0.96759875388E+01 0.96759886974E+01 0.96310499884E+01
 0.95177525154E+01 0.92950206424E+01 0.89183886664E+01 0.83461430711E+01 0.75468528360E+01
 0.65082267896E+01 0.52459256121E+01 0.38095211657E+01 0.22821873531E+01 0.77207128626E+00
 -.60336551699E+00 -.17352006393E+01 -.25370818081E+01 -.29518641284E+01 -.29061349607E+01
 -.26998652750E+01 -.20945142548E+01 -.11316360051E+01 0.11772363372E+00 0.15559789247E+01
 0.30693328647E+01 0.45441664519E+01 0.58843440961E+01 0.70236511995E+01 0.79301878212E+01
 0.86032450265E+01 0.90656248249E+01 0.93546517647E+01 0.95139606068E+01 0.95867856097E+01
 0.96079068224E+01 0.95867863442E+01 0.95139617204E+01 0.93546526697E+01 0.90656249071E+01
 0.86032438634E+01 0.79301853382E+01 0.70236477122E+01 0.58843402231E+01 0.45441629277E+01
 0.30693303136E+01 0.15559776726E+01 0.11772361960E+00 -.11316351892E+01 -.20945132094E+01
 -.26998645773E+01 -.26998645773E+01 -.26998625679E+01 -.22961667545E+01 -.15159081731E+01
 -.41498657502E+00 0.92231366875E+00 0.23898738608E+01 0.38734026753E+01 0.52677538363E+01
 0.64921019692E+01 0.74983211486E+01 0.82713206585E+01 0.88233015130E+01 0.91852147323E+01
 0.93981220535E+01 0.95057965312E+01 0.95485717818E+01 0.95485713808E+01 0.95057954150E+01
 0.93981204379E+01 0.91852128476E+01 0.88232994661E+01 0.82713183324E+01 0.74983181875E+01
 0.64920978705E+01 0.52677481292E+01 0.38733951337E+01 0.23898646793E+01 0.92230353548E+00
 -.41499654613E+00 -.15159166440E+01 -.22961724512E+01 -.20945132094E+01 -.22918806365E+01
 -.20945060010E+01 -.15159036529E+01 -.59741151744E+00 0.59127430188E+00 0.19557509434E+01
 0.33872310992E+01 0.47781322709E+01 0.60381720104E+01 0.71057443165E+01 0.79517852843E+01
 0.85766970875E+01 0.90030759086E+01 0.92672166041E+01 0.94113028190E+01 0.94769663057E+01
 0.94964070545E+01 0.94769646041E+01 0.94113000032E+01 0.92672135925E+01 0.90030735351E+01
 0.85766956877E+01 0.79517844488E+01 0.71057429229E+01 0.60381685487E+01 0.47781253706E+01
 0.33872200884E+01 0.19557362489E+01 0.59125753829E+00 -.59742782377E+00 -.15159166440E+01
 -.11316351892E+01 -.15036310939E+01 -.15036268593E+01 -.11316234223E+01 -.41497979517E+00
 0.59127581996E+00 0.18065228199E+01 0.31319223947E+01 0.44633733742E+01 0.57068873526E+01
 0.67915385667E+01 0.76762787304E+01 0.83497899097E+01 0.88251596573E+01 0.91321758311E+01
 0.93095160050E+01 0.93979759897E+01 0.94341658427E+01 0.94341648868E+01 0.93979735598E+01
 0.93095132278E+01 0.91321740326E+01 0.88251597538E+01 0.83497919138E+01 0.76762815713E+01
 0.67915403198E+01 0.57068858270E+01 0.44633668781E+01 0.31319104250E+01 0.18065064332E+01
 0.59125753829E+00 -.41499654613E+00 0.11772361960E+00 -.39204018792E+00 -.56647357861E+00
 -.39203327169E+00 0.11773571069E+00 0.92231782513E+00 0.19557493800E+01 0.31319195955E+01
 0.43548241029E+01 0.55321650704E+01 0.65884721000E+01 0.74738709538E+01 0.81666279499E+01
 0.86701388493E+01 0.90065926602E+01 0.92096386992E+01 0.93175628906E+01 0.93675001631E+01
 0.93831355782E+01 0.93674987449E+01 0.93175609587E+01 0.92096376832E+01 0.90065938963E+01
 0.86701429524E+01 0.81666344153E+01 0.74738781540E+01 0.65884777052E+01 0.55321667725E+01
 0.43548204091E+01 0.31319104250E+01 0.19557362489E+01 0.92230353548E+00 0.15559776726E+01
 0.95736282518E+00 0.64498869601E+00 0.64499072707E+00 0.95736823800E+00 0.15559846407E+01
 0.23898708042E+01 0.33872231478E+01 0.44633655077E+01 0.55321608652E+01 0.65182525219E+01
 0.73666991319E+01 0.80476073888E+01 0.85554400369E+01 0.89044386340E+01 0.91222264290E+01
 0.92432647550E+01 0.93030626731E+01 0.93296461228E+01 0.93296454788E+01 0.93030612102E+01
 0.92432636984E+01 0.91222272772E+01 0.89044425478E+01 0.85554473188E+01 0.80476172460E+01
 0.73667098170E+01 0.65182618199E+01 0.55321667725E+01 0.44633668781E+01 0.33872200884E+01
 0.23898646793E+01 0.30693303136E+01 0.24372487530E+01 0.20339070204E+01 0.18953594292E+01
 0.20339071563E+01 0.24372483984E+01 0.30693284626E+01 0.38733908079E+01 0.47781180425E+01
 0.57068757094E+01 0.65884657981E+01 0.73666976880E+01 0.80063424820E+01 0.84944611373E+01
 0.88377288404E+01 0.90573277824E+01 0.91830218129E+01 0.92475158388E+01 0.92799036803E+01
 0.92904544371E+01 0.92799022739E+01 0.92475138457E+01 0.91830205965E+01 0.90573287881E+01
 0.88377331010E+01 0.84944689072E+01 0.80063531186E+01 0.73667098170E+01 0.65884777052E+01
 0.57068858270E+01 0.47781253706E+01 0.38733951337E+01 0.45441629277E+01 0.39323571730E+01
 0.34893231549E+01 0.32568362814E+01 0.32568345919E+01 0.34893181721E+01 0.39323491720E+01
 0.45441524148E+01 0.52677358752E+01 0.60381555781E+01 0.67915278262E+01 0.74738673404E+01
 0.80476091153E+01 0.84944640538E+01 0.88145464795E+01 0.90227524381E+01 0.91437429582E+01
 0.92066885409E+01 0.92396755648E+01 0.92554575568E+01 0.92554565634E+01 0.92396729075E+01
 0.92066851076E+01 0.91437399835E+01 0.90227512043E+01 0.88145480158E+01 0.84944689072E+01
 0.80476172460E+01 0.74738781540E+01 0.67915403198E+01 0.60381685487E+01 0.52677481292E+01
 0.58843402231E+01 0.53369262040E+01 0.49020804858E+01 0.46225633922E+01 0.45261831025E+01
 0.46225575548E+01 0.49020697962E+01 0.53369124201E+01 0.58843255056E+01 0.64920843474E+01
 0.71057322958E+01 0.76762748490E+01 0.81666318243E+01 0.85554483873E+01 0.88377368694E+01
 0.90227564898E+01 0.91301021549E+01 0.91850574488E+01 0.92135677506E+01 0.92293334708E+01
 0.92344194142E+01 0.92293315174E+01 0.92135640448E+01 0.91850524240E+01 0.91300965142E+01
 0.90227512043E+01 0.88377331010E+01 0.85554473188E+01 0.81666344153E+01 0.76762815713E+01
 0.71057429229E+01 0.64920978705E+01 0.70236477122E+01 0.65698734436E+01 0.61810332880E+01
 0.58967516658E+01 0.57467005357E+01 0.57466970112E+01 0.58967419495E+01 0.61810197162E+01
 0.65698591980E+01 0.70236359769E+01 0.74983113459E+01 0.79517835479E+01 0.83497965357E+01
 0.86701515008E+01 0.89044528286E+01 0.90573386811E+01 0.91437479881E+01 0.91850579182E+01
 0.92045269847E+01 0.92154117173E+01 0.92203468182E+01 0.92203464161E+01 0.92154102518E+01
 0.92045238219E+01 0.91850524240E+01 0.91437399835E+01 0.90573287881E+01 0.89044425478E+01
 0.86701429524E+01 0.83497919138E+01 0.79517844488E+01 0.74983181875E+01 0.79301853382E+01
 0.75830960826E+01 0.72643461645E+01 0.70076555252E+01 0.68411883872E+01 0.67835361234E+01
 0.68411822466E+01 0.70076452384E+01 0.72643351002E+01 0.75830879444E+01 0.79301830367E+01
 0.82713231278E+01 0.85767068658E+01 0.88251749243E+01 0.90066097949E+01 0.91222407948E+01
 0.91830296912E+01 0.92066893045E+01 0.92135643767E+01 0.92154086873E+01 0.92154118100E+01
 0.92152376232E+01 0.92154132301E+01 0.92154102518E+01 0.92135640448E+01 0.92066851076E+01
 0.91830205965E+01 0.91222272772E+01 0.90065938963E+01 0.88251597538E+01 0.85766956877E+01
 0.82713183324E+01 0.86032438634E+01 0.83616879627E+01 0.81231600947E+01 0.79141830517E+01
 0.77591570880E+01 0.76766454873E+01 0.76766434265E+01 0.77591518617E+01 0.79141771945E+01
 0.81231568312E+01 0.83616900664E+01 0.86032526496E+01 0.88233142637E+01 0.90030918177E+01
 0.91321921718E+01 0.92096520723E+01 0.92432718735E+01 0.92475152285E+01 0.92396689231E+01
 0.92293250490E+01 0.92203407815E+01 0.92152354190E+01 0.92152376232E+01 0.92203464161E+01
 0.92293315174E+01 0.92396729075E+01 0.92475138457E+01 0.92432636984E+01 0.92096376832E+01
 0.91321740326E+01 0.90030735351E+01 0.88232994661E+01 0.90656249071E+01 0.89180801868E+01
 0.87582812817E+01 0.86054294833E+01 0.84790378119E+01 0.83957449770E+01 0.83666785641E+01
 0.83957444384E+01 0.84790378275E+01 0.86054317776E+01 0.87582874561E+01 0.89180909492E+01
 0.90656395750E+01 0.91852293252E+01 0.92672288608E+01 0.93095242073E+01 0.93175654674E+01
 0.93030586990E+01 0.92798940810E+01 0.92554455840E+01 0.92344092706E+01 0.92203407815E+01
 0.92154118100E+01 0.92203468182E+01 0.92344194142E+01 0.92554565634E+01 0.92799022739E+01
 0.93030612102E+01 0.93175609587E+01 0.93095132278E+01 0.92672135925E+01 0.91852128476E+01
 0.93546526697E+01 0.92834155917E+01 0.91927104735E+01 0.90950349607E+01 0.90047667646E+01
 0.89355853701E+01 0.88981062819E+01 0.88981077742E+01 0.89355898269E+01 0.90047740660E+01
 0.90950447390E+01 0.91927219541E+01 0.92834275178E+01 0.93546633868E+01 0.93981281576E+01
 0.94113032005E+01 0.93979713984E+01 0.93674913970E+01 0.93296342240E+01 0.92904414801E+01
 0.92554455840E+01 0.92293250490E+01 0.92154086873E+01 0.92154117173E+01 0.92293334708E+01
 0.92554575568E+01 0.92904544371E+01 0.93296454788E+01 0.93674987449E+01 0.93979735598E+01
 0.94113000032E+01 0.93981204379E+01 0.95139617204E+01 0.94988697569E+01 0.94630261493E+01
 0.94132461529E+01 0.93590988942E+01 0.93109317482E+01 0.92778656632E+01 0.92661127930E+01
 0.92778712461E+01 0.93109416564E+01 0.93591109185E+01 0.94132576592E+01 0.94630346850E+01
 0.94988735762E+01 0.95139601020E+01 0.95057887095E+01 0.94769540289E+01 0.94341521561E+01
 0.93831224903E+01 0.93296342240E+01 0.92798940810E+01 0.92396689231E+01 0.92135643767E+01
 0.92045269847E+01 0.92135677506E+01 0.92396755648E+01 0.92799036803E+01 0.93296461228E+01
 0.93831355782E+01 0.94341648868E+01 0.94769646041E+01 0.95057954150E+01 0.95867863442E+01
 0.96082533628E+01 0.96115394205E+01 0.95989933816E+01 0.95760560628E+01 0.95498339655E+01
 0.95274864263E+01 0.95147346499E+01 0.95147379715E+01 0.95274953120E+01 0.95498455108E+01
 0.95760664272E+01 0.95989989541E+01 0.96115378895E+01 0.96082443620E+01 0.95867714815E+01
 0.95485536660E+01 0.94963899315E+01 0.94341521561E+01 0.93674913970E+01 0.93030586990E+01
 0.92475152285E+01 0.92066893045E+01 0.91850579182E+01 0.91850574488E+01 0.92066885409E+01
 0.92475158388E+01 0.93030626731E+01 0.93675001631E+01 0.94341658427E+01 0.94964070545E+01
 0.95485713808E+01 0.96079068224E+01 0.96518913152E+01 0.96798886562E+01 0.96931238385E+01
 0.96940386482E+01 0.96869191414E+01 0.96768912628E+01 0.96686740059E+01 0.96655468174E+01
 0.96686790727E+01 0.96768992093E+01 0.96869263489E+01 0.96940413214E+01 0.96931193362E+01
 0.96798764475E+01 0.96518732363E+01 0.96078865443E+01 0.95485536660E+01 0.94769540289E+01
 0.93979713984E+01 0.93175654674E+01 0.92432718735E+01 0.91830296912E+01 0.91437479881E+01
 0.91301021549E+01 0.91437429582E+01 0.91830218129E+01 0.92432647550E+01 0.93175628906E+01
 0.93979759897E+01 0.94769663057E+01 0.95485717818E+01 0.95867856097E+01 0.96518901900E+01
 0.97002319373E+01 0.97321834761E+01 0.97501037431E+01 0.97576089873E+01 0.97586739714E+01
 0.97569191813E+01 0.97552389582E+01 0.97552401844E+01 0.97569220336E+01 0.97586762949E+01
 0.97576081556E+01 0.97500977406E+01 0.97321718154E+01 0.97002160692E+01 0.96518732363E+01
 0.95867714815E+01 0.95057887095E+01 0.94113032005E+01 0.93095242073E+01 0.92096520723E+01
 0.91222407948E+01 0.90573386811E+01 0.90227564898E+01 0.90227524381E+01 0.90573277824E+01
 0.91222264290E+01 0.92096386992E+01 0.93095160050E+01 0.94113028190E+01 0.95057965312E+01
 0.95139606068E+01 0.96082504020E+01 0.96798859092E+01 0.97321822612E+01 0.97678024947E+01
 0.97897199048E+01 0.98016353326E+01 0.98071652008E+01 0.98092347291E+01 0.98097115974E+01
 0.98092338013E+01 0.98071628454E+01 0.98016308438E+01 0.97897128405E+01 0.97677931279E+01
 0.97321718154E+01 0.96798764475E+01 0.96082443620E+01 0.95139601020E+01 0.93981281576E+01
 0.92672288608E+01 0.91321921718E+01 0.90066097949E+01 0.89044528286E+01 0.88377368694E+01
 0.88145464795E+01 0.88377288404E+01 0.89044386340E+01 0.90065926602E+01 0.91321758311E+01