   2   2   0   0
  0.6548503E+01  0.2100000E-09  0.2100000E-09  0.3429279E-09  0.5000000E-15
  1.000000000000000E-004
  CAR 
 Si beta-tin                             
     43.61282857     -0.93011695  301     23.95769532      1.00000000
     -0.930  0.0000E+00  0.0000E+00
     -0.782  0.0000E+00  0.0000E+00
     -0.633  0.0000E+00  0.0000E+00
     -0.485  0.0000E+00  0.0000E+00
     -0.336  0.0000E+00  0.0000E+00
     -0.188  0.0000E+00  0.0000E+00
     -0.039  0.0000E+00  0.0000E+00
      0.109  0.0000E+00  0.0000E+00
      0.258  0.0000E+00  0.0000E+00
      0.406  0.0000E+00  0.0000E+00
      0.555  0.2811E-16  0.4174E-17
      0.703  0.3865E-10  0.5738E-11
      0.852  0.7363E-06  0.1093E-06
      1.000  0.2256E-03  0.3361E-04
      1.149  0.1713E-02  0.2879E-03
      1.297  0.5500E-03  0.3696E-03
      1.446  0.5606E-05  0.3704E-03
      1.594  0.1965E-03  0.3996E-03
      1.742  0.2795E-02  0.8146E-03
      1.891  0.1938E-02  0.1102E-02
      2.039  0.5845E-04  0.1111E-02
      2.188  0.2845E-04  0.1115E-02
      2.336  0.1043E-02  0.1270E-02
      2.485  0.1355E-02  0.1471E-02
      2.633  0.6823E-04  0.1482E-02
      2.782  0.1949E-03  0.1510E-02
      2.930  0.3140E-02  0.1977E-02
      3.079  0.3463E-02  0.2491E-02
      3.227  0.6785E-03  0.2591E-02
      3.376  0.1397E-03  0.2612E-02
      3.524  0.3499E-02  0.3132E-02
      3.673  0.5477E-02  0.3945E-02
      3.821  0.8603E-03  0.4073E-02
      3.970  0.3037E-04  0.4077E-02
      4.118  0.9548E-03  0.4219E-02
      4.267  0.1433E-02  0.4432E-02
      4.415  0.8516E-04  0.4444E-02
      4.564  0.2218E-03  0.4477E-02
      4.712  0.3461E-02  0.4991E-02
      4.860  0.5464E-02  0.5803E-02
      5.009  0.2959E-02  0.6242E-02
      5.157  0.4396E-03  0.6307E-02
      5.306  0.2543E-02  0.6685E-02
      5.454  0.4732E-02  0.7387E-02
      5.603  0.2343E-02  0.7735E-02
      5.751  0.2850E-03  0.7778E-02
      5.900  0.1164E-05  0.7778E-02
      6.048  0.2905E-09  0.7778E-02
      6.197  0.2814E-05  0.7778E-02
      6.345  0.6228E-03  0.7871E-02
      6.494  0.4548E-02  0.8546E-02
      6.642  0.5913E-02  0.9424E-02
      6.791  0.3638E-02  0.9964E-02
      6.939  0.1578E-02  0.1020E-01
      7.088  0.6840E-02  0.1121E-01
      7.236  0.2903E-02  0.1164E-01
      7.385  0.2345E-02  0.1199E-01
      7.533  0.2151E-02  0.1231E-01
      7.682  0.3600E-02  0.1285E-01
      7.830  0.8390E-03  0.1297E-01
      7.978  0.1355E-02  0.1317E-01
      8.127  0.2398E-02  0.1353E-01
      8.275  0.4445E-02  0.1419E-01
      8.424  0.5326E-02  0.1498E-01
      8.572  0.1505E-02  0.1520E-01
      8.721  0.3040E-02  0.1565E-01
      8.869  0.5628E-02  0.1649E-01
      9.018  0.1875E-02  0.1677E-01
      9.166  0.3626E-02  0.1731E-01
      9.315  0.2234E-02  0.1764E-01
      9.463  0.9307E-03  0.1778E-01
      9.612  0.7773E-03  0.1789E-01
      9.760  0.3486E-02  0.1841E-01
      9.909  0.4417E-02  0.1907E-01
     10.057  0.4092E-02  0.1967E-01
     10.206  0.2522E-02  0.2005E-01
     10.354  0.4199E-02  0.2067E-01
     10.503  0.5265E-02  0.2145E-01
     10.651  0.4838E-02  0.2217E-01
     10.800  0.4958E-02  0.2291E-01
     10.948  0.2727E-02  0.2331E-01
     11.096  0.1443E-03  0.2333E-01
     11.245  0.4123E-04  0.2334E-01
     11.393  0.2472E-02  0.2371E-01
     11.542  0.7358E-02  0.2480E-01
     11.690  0.4503E-02  0.2547E-01
     11.839  0.1362E-02  0.2567E-01
     11.987  0.6184E-02  0.2659E-01
     12.136  0.4728E-02  0.2729E-01
     12.284  0.4250E-02  0.2792E-01
     12.433  0.6359E-02  0.2887E-01
     12.581  0.2559E-02  0.2924E-01
     12.730  0.7302E-03  0.2935E-01
     12.878  0.6880E-02  0.3037E-01
     13.027  0.8521E-02  0.3164E-01
     13.175  0.8062E-02  0.3284E-01
     13.324  0.2055E-02  0.3314E-01
     13.472  0.5552E-02  0.3397E-01
     13.621  0.7148E-02  0.3503E-01
     13.769  0.1055E-02  0.3518E-01
     13.918  0.5478E-05  0.3519E-01
     14.066  0.6877E-06  0.3519E-01
     14.214  0.2504E-03  0.3522E-01
     14.363  0.4139E-02  0.3584E-01
     14.511  0.7511E-02  0.3695E-01
     14.660  0.4300E-02  0.3759E-01
     14.808  0.1729E-02  0.3785E-01
     14.957  0.5205E-02  0.3862E-01
     15.105  0.6191E-02  0.3954E-01
     15.254  0.3715E-02  0.4009E-01
     15.402  0.1842E-02  0.4036E-01
     15.551  0.4621E-04  0.4037E-01
     15.699  0.9243E-03  0.4051E-01
     15.848  0.3758E-02  0.4107E-01
     15.996  0.3827E-02  0.4163E-01
     16.145  0.3630E-02  0.4217E-01
     16.293  0.3454E-02  0.4269E-01
     16.442  0.7110E-02  0.4374E-01
     16.590  0.4183E-02  0.4436E-01
     16.739  0.6398E-03  0.4446E-01
     16.887  0.2934E-02  0.4489E-01
     17.036  0.1014E-01  0.4640E-01
     17.184  0.1166E-01  0.4813E-01
     17.332  0.5677E-02  0.4897E-01
     17.481  0.3698E-02  0.4952E-01
     17.629  0.7319E-03  0.4963E-01
     17.778  0.1552E-02  0.4986E-01
     17.926  0.7770E-02  0.5102E-01
     18.075  0.8353E-02  0.5226E-01
     18.223  0.3786E-02  0.5282E-01
     18.372  0.2231E-02  0.5315E-01
     18.520  0.1418E-02  0.5336E-01
     18.669  0.5679E-02  0.5420E-01
     18.817  0.7133E-02  0.5526E-01
     18.966  0.5019E-02  0.5601E-01
     19.114  0.6586E-02  0.5699E-01
     19.263  0.3396E-02  0.5749E-01
     19.411  0.1947E-02  0.5778E-01
     19.560  0.1432E-02  0.5799E-01
     19.708  0.4573E-02  0.5867E-01
     19.857  0.5092E-02  0.5943E-01
     20.005  0.5223E-02  0.6020E-01
     20.154  0.4470E-02  0.6087E-01
     20.302  0.2792E-02  0.6128E-01
     20.450  0.3581E-02  0.6181E-01
     20.599  0.4231E-02  0.6244E-01
     20.747  0.1085E-01  0.6405E-01
     20.896  0.8987E-02  0.6539E-01
     21.044  0.1139E-02  0.6555E-01
     21.193  0.1676E-03  0.6558E-01
     21.341  0.2834E-02  0.6600E-01
     21.490  0.2632E-02  0.6639E-01
     21.638  0.2120E-02  0.6671E-01
     21.787  0.6160E-02  0.6762E-01
     21.935  0.5643E-02  0.6846E-01
     22.084  0.5572E-02  0.6929E-01
     22.232  0.4397E-02  0.6994E-01
     22.381  0.2120E-02  0.7025E-01
     22.529  0.6734E-02  0.7125E-01
     22.678  0.6129E-02  0.7216E-01
     22.826  0.8978E-02  0.7350E-01
     22.975  0.7923E-02  0.7467E-01
     23.123  0.3661E-02  0.7522E-01
     23.272  0.3621E-02  0.7575E-01
     23.420  0.7043E-02  0.7680E-01
     23.569  0.7075E-02  0.7785E-01
     23.717  0.5880E-02  0.7872E-01
     23.865  0.5343E-02  0.7952E-01
     24.014  0.5637E-02  0.8035E-01
     24.162  0.2559E-02  0.8073E-01
     24.311  0.4982E-03  0.8081E-01
     24.459  0.6030E-02  0.8170E-01
     24.608  0.1173E-01  0.8344E-01
     24.756  0.9146E-02  0.8480E-01
     24.905  0.6511E-02  0.8577E-01
     25.053  0.9920E-02  0.8724E-01
     25.202  0.1020E-01  0.8876E-01
     25.350  0.3319E-02  0.8925E-01
     25.499  0.6686E-04  0.8926E-01
     25.647  0.3570E-04  0.8926E-01
     25.796  0.1125E-02  0.8943E-01
     25.944  0.1651E-02  0.8968E-01
     26.093  0.2169E-02  0.9000E-01
     26.241  0.3935E-02  0.9058E-01
     26.390  0.3074E-02  0.9104E-01
     26.538  0.2160E-02  0.9136E-01
     26.687  0.4883E-02  0.9209E-01
     26.835  0.8244E-02  0.9331E-01
     26.983  0.5655E-02  0.9415E-01
     27.132  0.5005E-02  0.9489E-01
     27.280  0.4966E-02  0.9563E-01
     27.429  0.5784E-02  0.9649E-01
     27.577  0.5537E-02  0.9731E-01
     27.726  0.7545E-02  0.9843E-01
     27.874  0.7604E-02  0.9956E-01
     28.023  0.1181E-01  0.1013E+00
     28.171  0.4646E-02  0.1020E+00
     28.320  0.1728E-02  0.1023E+00
     28.468  0.2190E-02  0.1026E+00
     28.617  0.4186E-02  0.1032E+00
     28.765  0.3828E-02  0.1038E+00
     28.914  0.3054E-02  0.1042E+00
     29.062  0.8609E-02  0.1055E+00
     29.211  0.3722E-02  0.1061E+00
     29.359  0.4745E-02  0.1068E+00
     29.508  0.6861E-02  0.1078E+00
     29.656  0.3418E-02  0.1083E+00
     29.805  0.8063E-02  0.1095E+00
     29.953  0.3490E-02  0.1100E+00
     30.101  0.2597E-02  0.1104E+00
     30.250  0.5822E-02  0.1113E+00
     30.398  0.5971E-02  0.1121E+00
     30.547  0.7312E-02  0.1132E+00
     30.695  0.5549E-02  0.1141E+00
     30.844  0.3291E-02  0.1145E+00
     30.992  0.1831E-02  0.1148E+00
     31.141  0.1916E-02  0.1151E+00
     31.289  0.1157E-01  0.1168E+00
     31.438  0.1118E-01  0.1185E+00
     31.586  0.2718E-02  0.1189E+00
     31.735  0.8166E-04  0.1189E+00
     31.883  0.3518E-06  0.1189E+00
     32.032  0.2249E-03  0.1189E+00
     32.180  0.4637E-02  0.1196E+00
     32.329  0.5266E-02  0.1204E+00
     32.477  0.6478E-02  0.1214E+00
     32.626  0.9726E-02  0.1228E+00
     32.774  0.1047E-01  0.1244E+00
     32.923  0.3789E-02  0.1249E+00
     33.071  0.6531E-02  0.1259E+00
     33.219  0.7055E-02  0.1269E+00
     33.368  0.8724E-02  0.1282E+00
     33.516  0.4593E-02  0.1289E+00
     33.665  0.5707E-02  0.1298E+00
     33.813  0.5723E-02  0.1306E+00
     33.962  0.6326E-02  0.1315E+00
     34.110  0.1056E-01  0.1331E+00
     34.259  0.6101E-02  0.1340E+00
     34.407  0.9431E-02  0.1354E+00
     34.556  0.3706E-02  0.1360E+00
     34.704  0.4549E-02  0.1366E+00
     34.853  0.5908E-02  0.1375E+00
     35.001  0.6143E-02  0.1384E+00
     35.150  0.1562E-01  0.1408E+00
     35.298  0.1378E-01  0.1428E+00
     35.447  0.6014E-02  0.1437E+00
     35.595  0.3979E-02  0.1443E+00
     35.744  0.1238E-02  0.1445E+00
     35.892  0.3871E-02  0.1450E+00
     36.041  0.5215E-02  0.1458E+00
     36.189  0.2427E-02  0.1462E+00
     36.337  0.7867E-03  0.1463E+00
     36.486  0.4444E-03  0.1464E+00
     36.634  0.4042E-02  0.1470E+00
     36.783  0.4505E-02  0.1476E+00
     36.931  0.3626E-02  0.1482E+00
     37.080  0.5236E-02  0.1489E+00
     37.228  0.5766E-02  0.1498E+00
     37.377  0.9975E-02  0.1513E+00
     37.525  0.6687E-02  0.1523E+00
     37.674  0.3374E-02  0.1528E+00
     37.822  0.7788E-02  0.1539E+00
     37.971  0.7876E-02  0.1551E+00
     38.119  0.1126E-02  0.1553E+00
     38.268  0.2095E-02  0.1556E+00
     38.416  0.1989E-02  0.1559E+00
     38.565  0.1186E-02  0.1561E+00
     38.713  0.3406E-02  0.1566E+00
     38.862  0.8559E-03  0.1567E+00
     39.010  0.2826E-02  0.1571E+00
     39.159  0.4520E-02  0.1578E+00
     39.307  0.3981E-02  0.1584E+00
     39.455  0.1012E-02  0.1585E+00
     39.604  0.1750E-04  0.1585E+00
     39.752  0.4610E-03  0.1586E+00
     39.901  0.1752E-02  0.1588E+00
     40.049  0.8246E-03  0.1590E+00
     40.198  0.1718E-02  0.1592E+00
     40.346  0.2332E-03  0.1593E+00
     40.495  0.4605E-03  0.1593E+00
     40.643  0.1747E-02  0.1596E+00
     40.792  0.2830E-03  0.1596E+00
     40.940  0.1182E-05  0.1596E+00
     41.089  0.8065E-10  0.1596E+00
     41.237  0.8653E-09  0.1596E+00
     41.386  0.5228E-05  0.1596E+00
     41.534  0.5500E-03  0.1597E+00
     41.683  0.1713E-02  0.1600E+00
     41.831  0.2256E-03  0.1600E+00
     41.980  0.7363E-06  0.1600E+00
     42.128  0.3865E-10  0.1600E+00
     42.277  0.2825E-16  0.1600E+00
     42.425  0.0000E+00  0.1600E+00
     42.573  0.0000E+00  0.1600E+00
     42.722  0.0000E+00  0.1600E+00
     42.870  0.0000E+00  0.1600E+00
     43.019  0.0000E+00  0.1600E+00
     43.167  0.0000E+00  0.1600E+00
     43.316  0.0000E+00  0.1600E+00
     43.464  0.0000E+00  0.1600E+00
     43.613  0.0000E+00  0.1600E+00
