    2    2  100    1
  0.6548503E+01  0.2100000E-09  0.2100000E-09  0.3429279E-09  0.5000000E-15
  1.000000000000000E-004
  CAR 
 Si beta-tin                             
      8     36      8
 
  0.8333333E-01  0.8333333E-01  0.8333333E-01  0.1851852E-01
    1        1.702360   1.000000
    2       10.833941   1.000000
    3       14.971871   1.000000
    4       31.214078   0.000000
    5       33.111124   0.000000
    6       38.613229   0.000000
    7       39.115675   0.000000
    8       40.104113   0.000000
 
  0.2500000E+00  0.8333333E-01  0.8333333E-01  0.3703704E-01
    1        4.683949   1.000000
    2       13.512460   1.000000
    3       17.175643   1.000000
    4       22.496538   1.000000
    5       27.928491   0.000000
    6       30.820695   0.000000
    7       34.660981   0.000000
    8       37.054505   0.000000
 
  0.4166667E+00  0.8333333E-01  0.8333333E-01  0.3703704E-01
    1        9.782936   1.000000
    2       13.057362   1.000000
    3       18.655049   1.000000
    4       21.747504   1.000000
    5       22.419554   1.000000
    6       24.877738   0.000000
    7       31.227041   0.000000
    8       35.330653   0.000000
 
 -0.4166667E+00  0.8333333E-01  0.8333333E-01  0.3703704E-01
    1        6.999897   1.000000
    2       15.231549   1.000000
    3       17.006768   1.000000
    4       20.795653   1.000000
    5       25.110189   0.000000
    6       27.385980   0.000000
    7       32.436789   0.000000
    8       35.899665   0.000000
 
 -0.2500000E+00  0.8333333E-01  0.8333333E-01  0.3703704E-01
    1        2.906402   1.000000
    2       11.918349   1.000000
    3       15.961873   1.000000
    4       26.759631   0.000000
    5       30.277913   0.000000
    6       35.122386   0.000000
    7       37.251092   0.000000
    8       39.000225   0.000000
 
 -0.8333333E-01  0.8333333E-01  0.8333333E-01  0.1851852E-01
    1        1.094562   1.000000
    2       10.287912   1.000000
    3       14.449958   1.000000
    4       34.306174   0.000000
    5       37.007107   0.000000
    6       37.843165   0.000000
    7       39.208348   0.000000
    8       41.588149   0.000000
 
  0.2500000E+00  0.2500000E+00  0.8333333E-01  0.1851852E-01
    1        8.695293   1.000000
    2       16.532110   1.000000
    3       18.199813   1.000000
    4       18.703624   1.000000
    5       23.553737   1.000000
    6       27.532939   0.000000
    7       28.402146   0.000000
    8       32.910179   0.000000
 
  0.4166667E+00  0.2500000E+00  0.8333333E-01  0.3703704E-01
    1       11.416696   1.000000
    2       14.612654   1.000000
    3       17.405801   1.000000
    4       20.589812   1.000000
    5       23.330030   1.000000
    6       25.026570   0.000000
    7       27.648453   0.000000
    8       31.331385   0.000000
 
 -0.4166667E+00  0.2500000E+00  0.8333333E-01  0.3703704E-01
    1        6.427028   1.000000
    2       15.029630   1.000000
    3       17.975941   1.000000
    4       20.764706   1.000000
    5       24.578782   0.000000
    6       28.998831   0.000000
    7       32.159293   0.000000
    8       34.360568   0.000000
 
 -0.2500000E+00  0.2500000E+00  0.8333333E-01  0.1851852E-01
    1        3.502713   1.000000
    2       12.454526   1.000000
    3       16.402772   1.000000
    4       24.492505   0.000000
    5       31.182930   0.000000
    6       33.695164   0.000000
    7       33.819119   0.000000
    8       39.815516   0.000000
 
  0.4166667E+00  0.4166667E+00  0.8333333E-01  0.1851852E-01
    1       11.610353   1.000000
    2       12.378203   1.000000
    3       19.865291   1.000000
    4       20.666952   1.000000
    5       21.908278   1.000000
    6       24.468924   0.000000
    7       30.536905   0.000000
    8       31.234842   0.000000
 
 -0.4166667E+00  0.4166667E+00  0.8333333E-01  0.1851852E-01
    1        8.131107   1.000000
    2       14.387685   1.000000
    3       17.207721   1.000000
    4       21.532304   1.000000
    5       23.429370   1.000000
    6       26.713224   0.000000
    7       32.181532   0.000000
    8       37.871476   0.000000
 
  0.8333333E-01  0.8333333E-01  0.2500000E+00  0.1851852E-01
    1        2.348896   1.000000
    2        7.969567   1.000000
    3       18.850176   1.000000
    4       31.452922   0.000000
    5       33.316737   0.000000
    6       33.841088   0.000000
    7       37.550081   0.000000
    8       38.657632   0.000000
 
  0.2500000E+00  0.8333333E-01  0.2500000E+00  0.3703704E-01
    1        5.311020   1.000000
    2       10.747583   1.000000
    3       20.350945   1.000000
    4       23.516012   1.000000
    5       26.568576   0.000000
    6       30.585275   0.000000
    7       34.057706   0.000000
    8       37.293197   0.000000
 
  0.4166667E+00  0.8333333E-01  0.2500000E+00  0.3703704E-01
    1       10.360306   1.000000
    2       13.374103   1.000000
    3       16.376848   1.000000
    4       19.242711   1.000000
    5       25.187818   0.000000
    6       27.841017   0.000000
    7       32.462152   0.000000
    8       33.551179   0.000000
 
 -0.4166667E+00  0.8333333E-01  0.2500000E+00  0.3703704E-01
    1        7.610324   1.000000
    2       12.818197   1.000000
    3       17.819980   1.000000
    4       22.772739   1.000000
    5       23.686708   0.999937
    6       29.027909   0.000000
    7       33.186847   0.000000
    8       34.980004   0.000000
 
 -0.2500000E+00  0.8333333E-01  0.2500000E+00  0.3703704E-01
    1        3.545064   1.000000
    2        9.094483   1.000000
    3       19.729272   1.000000
    4       27.267915   0.000000
    5       30.103407   0.000000
    6       32.658830   0.000000
    7       35.129296   0.000000
    8       37.721398   0.000000
 
 -0.8333333E-01  0.8333333E-01  0.2500000E+00  0.1851852E-01
    1        1.745148   1.000000
    2        7.401509   1.000000
    3       18.369894   1.000000
    4       32.916968   0.000000
    5       35.361678   0.000000
    6       37.400038   0.000000
    7       37.853241   0.000000
    8       40.558032   0.000000
 
  0.2500000E+00  0.2500000E+00  0.2500000E+00  0.1851852E-01
    1        9.292223   1.000000
    2       14.310567   1.000000
    3       18.694442   1.000000
    4       19.681209   1.000000
    5       23.832059   0.962197
    6       25.801943   0.000000
    7       28.812642   0.000000
    8       36.155076   0.000000
 
  0.4166667E+00  0.2500000E+00  0.2500000E+00  0.3703704E-01
    1       11.978268   1.000000
    2       14.902880   1.000000
    3       17.015716   1.000000
    4       18.996338   1.000000
    5       22.022527   1.000000
    6       24.645965   0.000000
    7       29.777104   0.000000
    8       34.023706   0.000000
 
 -0.4166667E+00  0.2500000E+00  0.2500000E+00  0.3703704E-01
    1        7.042140   1.000000
    2       12.346642   1.000000
    3       19.982984   1.000000
    4       22.135474   1.000000
    5       24.469812   0.000000
    6       28.032559   0.000000
    7       30.416280   0.000000
    8       37.431749   0.000000
 
 -0.2500000E+00  0.2500000E+00  0.2500000E+00  0.1851852E-01
    1        4.137551   1.000000
    2        9.650342   1.000000
    3       20.039184   1.000000
    4       25.165413   0.000000
    5       28.984978   0.000000
    6       33.746955   0.000000
    7       34.274789   0.000000
    8       38.339350   0.000000
 
  0.4166667E+00  0.4166667E+00  0.2500000E+00  0.1851852E-01
    1       12.149286   1.000000
    2       12.874643   1.000000
    3       17.996919   1.000000
    4       18.098907   1.000000
    5       23.035055   1.000000
    6       27.012536   0.000000
    7       30.522763   0.000000
    8       32.657988   0.000000
 
 -0.4166667E+00  0.4166667E+00  0.2500000E+00  0.1851852E-01
    1        8.730667   1.000000
    2       13.532042   1.000000
    3       16.194213   1.000000
    4       20.845466   1.000000
    5       24.827962   0.000000
    6       29.718042   0.000000
    7       32.629998   0.000000
    8       36.589385   0.000000
 
  0.8333333E-01  0.8333333E-01  0.4166667E+00  0.1851852E-01
    1        3.629108   1.000000
    2        5.517271   1.000000
    3       23.324829   1.000000
    4       28.178915   0.000000
    5       32.671314   0.000000
    6       33.294681   0.000000
    7       36.684620   0.000000
    8       37.253622   0.000000
 
  0.2500000E+00  0.8333333E-01  0.4166667E+00  0.3703704E-01
    1        6.552089   1.000000
    2        8.380193   1.000000
    3       22.771317   1.000000
    4       24.653419   0.000000
    5       26.196706   0.000000
    6       29.489440   0.000000
    7       33.020291   0.000000
    8       34.754822   0.000000
 
  0.4166667E+00  0.8333333E-01  0.4166667E+00  0.3703704E-01
    1       11.472635   1.000000
    2       12.890404   1.000000
    3       15.762228   1.000000
    4       17.132733   1.000000
    5       27.605121   0.000000
    6       29.274345   0.000000
    7       33.309897   0.000000
    8       35.160763   0.000000
 
 -0.4166667E+00  0.8333333E-01  0.4166667E+00  0.3703704E-01
    1        8.815605   1.000000
    2       10.579414   1.000000
    3       19.002166   1.000000
    4       20.673313   1.000000
    5       26.994419   0.000000
    6       29.415409   0.000000
    7       32.635387   0.000000
    8       35.187985   0.000000
 
 -0.2500000E+00  0.8333333E-01  0.4166667E+00  0.3703704E-01
    1        4.809663   1.000000
    2        6.674336   1.000000
    3       23.977559   0.389386
    4       27.919596   0.000000
    5       28.633164   0.000000
    6       29.765176   0.000000
    7       34.384776   0.000000
    8       35.539418   0.000000
 
 -0.8333333E-01  0.8333333E-01  0.4166667E+00  0.1851852E-01
    1        3.033297   1.000000
    2        4.933166   1.000000
    3       22.906525   1.000000
    4       27.881546   0.000000
    5       35.866286   0.000000
    6       36.860188   0.000000
    7       38.172298   0.000000
    8       39.275211   0.000000
 
  0.2500000E+00  0.2500000E+00  0.4166667E+00  0.1851852E-01
    1       10.467655   1.000000
    2       12.176371   1.000000
    3       19.556529   1.000000
    4       20.171316   1.000000
    5       23.185391   1.000000
    6       24.002036   0.265305
    7       32.233585   0.000000
    8       36.774200   0.000000
 
  0.4166667E+00  0.2500000E+00  0.4166667E+00  0.3703704E-01
    1       13.053358   1.000000
    2       14.408854   1.000000
    3       16.884426   1.000000
    4       17.906201   1.000000
    5       21.776995   1.000000
    6       22.915795   1.000000
    7       34.103295   0.000000
    8       37.838832   0.000000
 
 -0.4166667E+00  0.2500000E+00  0.4166667E+00  0.3703704E-01
    1        8.258307   1.000000
    2       10.045196   1.000000
    3       21.323708   1.000000
    4       22.631531   1.000000
    5       24.973705   0.000000
    6       26.813940   0.000000
    7       31.374317   0.000000
    8       35.063517   0.000000
 
 -0.2500000E+00  0.2500000E+00  0.4166667E+00  0.1851852E-01
    1        5.394364   1.000000
    2        7.247106   1.000000
    3       23.780663   0.993853
    4       26.329588   0.000000
    5       27.179379   0.000000
    6       30.209905   0.000000
    7       35.192039   0.000000
    8       36.576796   0.000000
 
  0.4166667E+00  0.4166667E+00  0.4166667E+00  0.1851852E-01
    1       13.106034   1.000000
    2       13.559353   1.000000
    3       16.120070   1.000000
    4       16.413425   1.000000
    5       24.388153   0.000000
    6       26.017650   0.000000
    7       33.936801   0.000000
    8       36.001837   0.000000
 
 -0.4166667E+00  0.4166667E+00  0.4166667E+00  0.1851852E-01
    1        9.908991   1.000000
    2       11.602805   1.000000
    3       17.026778   1.000000
    4       18.665214   1.000000
    5       28.546955   0.000000
    6       31.304278   0.000000
    7       33.528335   0.000000
    8       34.868743   0.000000
