       N       E                     dE             d eps       ncg     rms          rms(c)
DAV:   1     0.139437421150E+02    0.13944E+02   -0.40541E+03   632   0.771E+02
DAV:   2    -0.543253351976E+00   -0.14487E+02   -0.13711E+02   880   0.922E+01
DAV:   3    -0.631221003516E+00   -0.87968E-01   -0.87914E-01   664   0.881E+00
DAV:   4    -0.631305490807E+00   -0.84487E-04   -0.84485E-04   944   0.257E-01
DAV:   5    -0.631305522101E+00   -0.31294E-07   -0.33603E-07   680   0.203E-03    0.169E+01
DAV:   6    -0.412793858860E+00    0.21851E+00   -0.10932E-02   688   0.953E-01    0.956E+00
DAV:   7    -0.287340445476E+00    0.12545E+00   -0.23943E-02   696   0.142E+00    0.540E-01
DAV:   8    -0.286440873742E+00    0.89957E-03   -0.33687E-04   856   0.168E-01    0.185E-01
DAV:   9    -0.286381388658E+00    0.59485E-04   -0.20247E-05   696   0.413E-02    0.664E-03
DAV:  10    -0.286380702233E+00    0.68642E-06   -0.12738E-06   384   0.845E-03
   1 F= -.28638070E+00 E0= -.28553387E+00  d E =-.286381E+00
       N       E                     dE             d eps       ncg     rms          rms(c)
DAV:   1    -0.288743775934E+00   -0.23624E-02   -0.25905E+00   808   0.102E+01    0.106E+00
DAV:   2    -0.269058451658E+00    0.19685E-01   -0.31162E-02   624   0.160E+00    0.539E-01
DAV:   3    -0.261155429553E+00    0.79030E-02   -0.19768E-02   800   0.938E-01    0.425E-02
DAV:   4    -0.261190301244E+00   -0.34872E-04   -0.34223E-04   648   0.203E-01    0.359E-02
DAV:   5    -0.261192354661E+00   -0.20534E-05   -0.44994E-07   552   0.712E-03
   2 F= -.26119235E+00 E0= -.25985206E+00  d E =0.251883E-01
       N       E                     dE             d eps       ncg     rms          rms(c)
DAV:   1    -0.310481681956E+00   -0.49291E-01   -0.90011E-01   824   0.608E+00    0.607E-01
DAV:   2    -0.304443221606E+00    0.60385E-02   -0.96685E-03   632   0.907E-01    0.308E-01
DAV:   3    -0.302058981690E+00    0.23842E-02   -0.54674E-03   760   0.493E-01    0.274E-02
DAV:   4    -0.302068625210E+00   -0.96435E-05   -0.98825E-05   632   0.108E-01
   3 F= -.30206863E+00 E0= -.30050391E+00  d E =-.156879E-01
