 vasp.5.4.1 24Jun15 (build Jul 19 2016 16:50:41) complex                        
  
 executed on           IFC91_ompi date 2019.10.10  11:09:39
 running on    4 total cores
 distrk:  each k-point on    4 cores,    1 groups
 distr:  one band on NCORES_PER_BAND=   1 cores,    4 groups


--------------------------------------------------------------------------------------------------------


 INCAR:
 POTCAR:    PAW_PBE Si 05Jan2001                  
 POTCAR:    PAW_PBE Si 05Jan2001                  
   VRHFIN = Si: s2p2                                                            
   LEXCH  = PE                                                                  
   EATOM  =   103.0669 eV,    7.5752 Ry                                         
                                                                                
   TITEL  = PAW_PBE Si 05Jan2001                                                
   LULTRA =        F    use ultrasoft PP ?                                      
   IUNSCR =        1    unscreen: 0-lin 1-nonlin 2-no                           
   RPACOR =    1.500    partial core radius                                     
   POMASS =   28.085; ZVAL   =    4.000    mass and valenz                      
   RCORE  =    1.900    outmost cutoff radius                                   
   RWIGS  =    2.480; RWIGS  =    1.312    wigner-seitz radius (au A)           
   ENMAX  =  245.345; ENMIN  =  184.009 eV                                      
   ICORE  =        2    local potential                                         
   LCOR   =        T    correct aug charges                                     
   LPAW   =        T    paw PP                                                  
   EAUG   =  322.069                                                            
   DEXC   =    0.000                                                            
   RMAX   =    1.950    core radius for proj-oper                               
   RAUG   =    1.300    factor for augmentation sphere                          
   RDEP   =    1.993    radius for radial grids                                 
   RDEPT  =    1.837    core radius for aug-charge                              
                                                                                
   Atomic configuration                                                         
    6 entries                                                                   
     n  l   j            E        occ.                                          
     1  0  0.50     -1785.8828   2.0000                                         
     2  0  0.50      -139.4969   2.0000                                         
     2  1  1.50       -95.5546   6.0000                                         
     3  0  0.50       -10.8127   2.0000                                         
     3  1  0.50        -4.0811   2.0000                                         
     3  2  1.50        -4.0817   0.0000                                         
   Description                                                                  
     l       E           TYP  RCUT    TYP  RCUT                                 
     0    -10.8127223     23  1.900                                             
     0     -7.6451159     23  1.900                                             
     1     -4.0811372     23  1.900                                             
     1      2.4879257     23  1.900                                             
     2     -4.0817478      7  1.900                                             
  local pseudopotential read in
  partial core-charges read in
  partial kinetic energy density read in
  atomic valenz-charges read in
  non local Contribution for L=           0  read in
    real space projection operators read in
  non local Contribution for L=           0  read in
    real space projection operators read in
  non local Contribution for L=           1  read in
    real space projection operators read in
  non local Contribution for L=           1  read in
    real space projection operators read in
    PAW grid and wavefunctions read in
 
   number of l-projection  operators is LMAX  =           4
   number of lm-projection operators is LMMAX =           8
 
  PAW_PBE Si 05Jan2001                  :
 energy of atom  1       EATOM= -103.0669
 kinetic energy error for atom=    0.0009 (will be added to EATOM!!)
 
 
 POSCAR: Si HCP                                  
  positions in direct lattice
  No initial velocities read in
 exchange correlation table for  LEXCH =        8
   RHO(1)=    0.500       N(1)  =     2000
   RHO(2)=  100.500       N(2)  =     4000
 


--------------------------------------------------------------------------------------------------------


 ion  position               nearest neighbor table
   1  0.000  0.000  0.000-   2 2.10   2 2.10   2 2.10   2 2.10   2 2.10   2 2.10   2 2.97   2 2.97
                             2 2.97   2 2.97   2 2.97   2 2.97
   2  0.333  0.667  0.500-   1 2.10   1 2.10   1 2.10   1 2.10   1 2.10   1 2.10   1 2.97   1 2.97
                             1 2.97   1 2.97   1 2.97   1 2.97
 
  LATTYP: Found a hexagonal cell.
 ALAT       =     2.1000000000
 C/A-ratio  =     1.6329900000
  
  Lattice vectors:
  
 A1 = (   2.1000000000,   0.0000000000,   0.0000000000)
 A2 = (  -1.0500000000,   1.8186533479,   0.0000000000)
 A3 = (   0.0000000000,   0.0000000000,   3.4292790000)


Analysis of symmetry for initial positions (statically):
=====================================================================
 Subroutine PRICEL returns:
 Original cell was already a primitive cell.
 

 Routine SETGRP: Setting up the symmetry group for a 
 hexagonal supercell.


 Subroutine GETGRP returns: Found 24 space group operations
 (whereof 12 operations were pure point group operations)
 out of a pool of 24 trial point group operations.


The static configuration has the point symmetry D_3h.
 The point group associated with its full space group is D_6h.


Analysis of symmetry for dynamics (positions and initial velocities):
=====================================================================
 Subroutine PRICEL returns:
 Original cell was already a primitive cell.
 

 Routine SETGRP: Setting up the symmetry group for a 
 hexagonal supercell.


 Subroutine GETGRP returns: Found 24 space group operations
 (whereof 12 operations were pure point group operations)
 out of a pool of 24 trial point group operations.


The dynamic configuration has the point symmetry D_3h.
 The point group associated with its full space group is D_6h.


 Subroutine INISYM returns: Found 24 space group operations
 (whereof 12 operations are pure point group operations),
 and found     1 'primitive' translations

 
 
 KPOINTS: K-Points                                

Automatic generation of k-mesh.
Space group operators:
 irot       det(A)        alpha          n_x          n_y          n_z        tau_x        tau_y        tau_z
    1     1.000000     0.000000     1.000000     0.000000     0.000000     0.000000     0.000000     0.000000
    2    -1.000000    60.000000     0.000000     0.000000    -1.000000     0.000000     0.000000     0.000000
    3     1.000000   120.000000     0.000000     0.000000    -1.000000     0.000000     0.000000     0.000000
    4    -1.000000   180.000000     0.000000     0.000000     1.000000     0.000000     0.000000     0.000000
    5     1.000000   120.000000     0.000000     0.000000     1.000000     0.000000     0.000000     0.000000
    6    -1.000000    60.000000     0.000000     0.000000     1.000000     0.000000     0.000000     0.000000
    7    -1.000000   180.000000     1.000000     0.000000     0.000000     0.000000     0.000000     0.000000
    8     1.000000   180.000000     0.866025    -0.500000     0.000000     0.000000     0.000000     0.000000
    9    -1.000000   180.000000     0.500000    -0.866025     0.000000     0.000000     0.000000     0.000000
   10     1.000000   180.000000     0.000000     1.000000     0.000000     0.000000     0.000000     0.000000
   11    -1.000000   180.000000    -0.500000    -0.866025     0.000000     0.000000     0.000000     0.000000
   12     1.000000   180.000000     0.866025     0.500000     0.000000     0.000000     0.000000     0.000000
   13    -1.000000     0.000000     1.000000     0.000000     0.000000     0.333333     0.666667     0.500000
   14     1.000000    60.000000     0.000000     0.000000    -1.000000     0.333333     0.666667     0.500000
   15    -1.000000   120.000000     0.000000     0.000000    -1.000000     0.333333     0.666667     0.500000
   16     1.000000   180.000000     0.000000     0.000000     1.000000     0.333333     0.666667     0.500000
   17    -1.000000   120.000000     0.000000     0.000000     1.000000     0.333333     0.666667     0.500000
   18     1.000000    60.000000     0.000000     0.000000     1.000000     0.333333     0.666667     0.500000
   19     1.000000   180.000000     1.000000     0.000000     0.000000     0.333333     0.666667     0.500000
   20    -1.000000   180.000000     0.866025    -0.500000     0.000000     0.333333     0.666667     0.500000
   21     1.000000   180.000000     0.500000    -0.866025     0.000000     0.333333     0.666667     0.500000
   22    -1.000000   180.000000     0.000000     1.000000     0.000000     0.333333     0.666667     0.500000
   23     1.000000   180.000000    -0.500000    -0.866025     0.000000     0.333333     0.666667     0.500000
   24    -1.000000   180.000000     0.866025     0.500000     0.000000     0.333333     0.666667     0.500000
 
 Subroutine IBZKPT returns following result:
 ===========================================
 
 Found     36 irreducible k-points:
 
 Following reciprocal coordinates:
            Coordinates               Weight
  0.083333  0.083333  0.083333     96.000000
  0.250000  0.083333  0.083333    192.000000
  0.416667  0.083333  0.083333    192.000000
 -0.416667  0.083333  0.083333    192.000000
 -0.250000  0.083333  0.083333    192.000000
 -0.083333  0.083333  0.083333     96.000000
  0.250000  0.250000  0.083333     96.000000
  0.416667  0.250000  0.083333    192.000000
 -0.416667  0.250000  0.083333    192.000000
 -0.250000  0.250000  0.083333     96.000000
  0.416667  0.416667  0.083333     96.000000
 -0.416667  0.416667  0.083333     96.000000
  0.083333  0.083333  0.250000     96.000000
  0.250000  0.083333  0.250000    192.000000
  0.416667  0.083333  0.250000    192.000000
 -0.416667  0.083333  0.250000    192.000000
 -0.250000  0.083333  0.250000    192.000000
 -0.083333  0.083333  0.250000     96.000000
  0.250000  0.250000  0.250000     96.000000
  0.416667  0.250000  0.250000    192.000000
 -0.416667  0.250000  0.250000    192.000000
 -0.250000  0.250000  0.250000     96.000000
  0.416667  0.416667  0.250000     96.000000
 -0.416667  0.416667  0.250000     96.000000
  0.083333  0.083333  0.416667     96.000000
  0.250000  0.083333  0.416667    192.000000
  0.416667  0.083333  0.416667    192.000000
 -0.416667  0.083333  0.416667    192.000000
 -0.250000  0.083333  0.416667    192.000000
 -0.083333  0.083333  0.416667     96.000000
  0.250000  0.250000  0.416667     96.000000
  0.416667  0.250000  0.416667    192.000000
 -0.416667  0.250000  0.416667    192.000000
 -0.250000  0.250000  0.416667     96.000000
  0.416667  0.416667  0.416667     96.000000
 -0.416667  0.416667  0.416667     96.000000
 
 Following cartesian coordinates:
            Coordinates               Weight
  0.083333  0.144338  0.051031     96.000000
  0.250000  0.240563  0.051031    192.000000
  0.416667  0.336788  0.051031    192.000000
 -0.416667 -0.144338  0.051031    192.000000
 -0.250000 -0.048113  0.051031    192.000000
 -0.083333  0.048113  0.051031     96.000000
  0.250000  0.433013  0.051031     96.000000
  0.416667  0.529238  0.051031    192.000000
 -0.416667  0.048113  0.051031    192.000000
 -0.250000  0.144338  0.051031     96.000000
  0.416667  0.721688  0.051031     96.000000
 -0.416667  0.240563  0.051031     96.000000
  0.083333  0.144338  0.153093     96.000000
  0.250000  0.240563  0.153093    192.000000
  0.416667  0.336788  0.153093    192.000000
 -0.416667 -0.144338  0.153093    192.000000
 -0.250000 -0.048113  0.153093    192.000000
 -0.083333  0.048113  0.153093     96.000000
  0.250000  0.433013  0.153093     96.000000
  0.416667  0.529238  0.153093    192.000000
 -0.416667  0.048113  0.153093    192.000000
 -0.250000  0.144338  0.153093     96.000000
  0.416667  0.721688  0.153093     96.000000
 -0.416667  0.240563  0.153093     96.000000
  0.083333  0.144338  0.255156     96.000000
  0.250000  0.240563  0.255156    192.000000
  0.416667  0.336788  0.255156    192.000000
 -0.416667 -0.144338  0.255156    192.000000
 -0.250000 -0.048113  0.255156    192.000000
 -0.083333  0.048113  0.255156     96.000000
  0.250000  0.433013  0.255156     96.000000
  0.416667  0.529238  0.255156    192.000000
 -0.416667  0.048113  0.255156    192.000000
 -0.250000  0.144338  0.255156     96.000000
  0.416667  0.721688  0.255156     96.000000
 -0.416667  0.240563  0.255156     96.000000
 


--------------------------------------------------------------------------------------------------------




 Dimension of arrays:
   k-points           NKPTS =     36   k-points in BZ     NKDIM =     36   number of bands    NBANDS=      8
   number of dos      NEDOS =    301   number of ions     NIONS =      2
   non local maximal  LDIM  =      4   non local SUM 2l+1 LMDIM =      8
   total plane-waves  NPLWV =   6144
   max r-space proj   IRMAX =      1   max aug-charges    IRDMAX=  15882
   dimension x,y,z NGX =    16 NGY =   16 NGZ =   24
   dimension x,y,z NGXF=    32 NGYF=   32 NGZF=   48
   support grid    NGXF=    32 NGYF=   32 NGZF=   48
   ions per type =               2
 NGX,Y,Z   is equivalent  to a cutoff of  12.67, 12.67, 11.63 a.u.
 NGXF,Y,Z  is equivalent  to a cutoff of  25.33, 25.33, 23.27 a.u.


 I would recommend the setting:
   dimension x,y,z NGX =    15 NGY =   15 NGZ =   24
 SYSTEM =  Si beta-tin                             
 POSCAR =  Si HCP                                  

 Startparameter for this run:
   NWRITE =      2    write-flag & timer
   PREC   = accura    normal or accurate (medium, high low for compatibility)
   ISTART =      0    job   : 0-new  1-cont  2-samecut
   ICHARG =      2    charge: 1-file 2-atom 10-const
   ISPIN  =      1    spin polarized calculation?
   LNONCOLLINEAR =      F non collinear calculations
   LSORBIT =      F    spin-orbit coupling
   INIWAV =      1    electr: 0-lowe 1-rand  2-diag
   LASPH  =      F    aspherical Exc in radial PAW
   METAGGA=      F    non-selfconsistent MetaGGA calc.

 Electronic Relaxation 1
   ENCUT  =  450.0 eV  33.07 Ry    5.75 a.u.   3.63  3.63  5.93*2*pi/ulx,y,z
   ENINI  =  450.0     initial cutoff
   ENAUG  =  322.1 eV  augmentation charge cutoff
   NELM   =     60;   NELMIN=  2; NELMDL= -5     # of ELM steps 
   EDIFF  = 0.1E-04   stopping-criterion for ELM
   LREAL  =      F    real-space projection
   NLSPLINE    = F    spline interpolate recip. space projectors
   LCOMPAT=      F    compatible to vasp.4.4
   GGA_COMPAT  = T    GGA compatible to vasp.4.4-vasp.4.6
   LMAXPAW     = -100 max onsite density
   LMAXMIX     =    2 max onsite mixed and CHGCAR
   VOSKOWN=      0    Vosko Wilk Nusair interpolation
   ROPT   =    0.00000
 Ionic relaxation
   EDIFFG = -.1E-01   stopping-criterion for IOM
   NSW    =    100    number of steps for IOM
   NBLOCK =      1;   KBLOCK =    100    inner block; outer block 
   IBRION =      2    ionic relax: 0-MD 1-quasi-New 2-CG
   NFREE  =      1    steps in history (QN), initial steepest desc. (CG)
   ISIF   =      4    stress and relaxation
   IWAVPR =     11    prediction:  0-non 1-charg 2-wave 3-comb
   ISYM   =      2    0-nonsym 1-usesym 2-fastsym
   LCORR  =      T    Harris-Foulkes like correction to forces

   POTIM  = 0.5000    time-step for ionic-motion
   TEIN   =    0.0    initial temperature
   TEBEG  =    0.0;   TEEND  =   0.0 temperature during run
   SMASS  =  -3.00    Nose mass-parameter (am)
   estimated Nose-frequenzy (Omega)   =  0.10E-29 period in steps =****** mass=  -0.101E-27a.u.
   SCALEE = 1.0000    scale energy and forces
   NPACO  =    256;   APACO  = 16.0  distance and # of slots for P.C.
   PSTRESS=    0.0 pullay stress

  Mass of Ions in am
   POMASS =  28.09
  Ionic Valenz
   ZVAL   =   4.00
  Atomic Wigner-Seitz radii
   RWIGS  =  -1.00
  virtual crystal weights 
   VCA    =   1.00
   NELECT =       8.0000    total number of electrons
   NUPDOWN=      -1.0000    fix difference up-down

 DOS related values:
   EMIN   =  10.00;   EMAX   =-10.00  energy-range for DOS
   EFERMI =   0.00
   ISMEAR =     0;   SIGMA  =   0.10  broadening in eV -4-tet -1-fermi 0-gaus

 Electronic relaxation 2 (details)
   IALGO  =     38    algorithm
   LDIAG  =      T    sub-space diagonalisation (order eigenvalues)
   LSUBROT=      F    optimize rotation matrix (better conditioning)
   TURBO    =      0    0=normal 1=particle mesh
   IRESTART =      0    0=no restart 2=restart with 2 vectors
   NREBOOT  =      0    no. of reboots
   NMIN     =      0    reboot dimension
   EREF     =   0.00    reference energy to select bands
   IMIX   =      4    mixing-type and parameters
     AMIX     =   0.40;   BMIX     =  1.00
     AMIX_MAG =   1.60;   BMIX_MAG =  1.00
     AMIN     =   0.10
     WC   =   100.;   INIMIX=   1;  MIXPRE=   1;  MAXMIX= -45

 Intra band minimization:
   WEIMIN = 0.0010     energy-eigenvalue tresh-hold
   EBREAK =  0.31E-06  absolut break condition
   DEPER  =   0.30     relativ break condition  

   TIME   =   0.40     timestep for ELM

  volume/ion in A,a.u.               =       6.55        44.19
  Fermi-wavevector in a.u.,A,eV,Ry     =   1.389038  2.624901 26.251444  1.929427
  Thomas-Fermi vector in A             =   2.513107
 
 Write flags
   LWAVE  =      T    write WAVECAR
   LCHARG =      T    write CHGCAR
   LVTOT  =      F    write LOCPOT, total local potential
   LVHAR  =      F    write LOCPOT, Hartree potential only
   LELF   =      F    write electronic localiz. function (ELF)
   LORBIT =      0    0 simple, 1 ext, 2 COOP (PROOUT)


 Dipole corrections
   LMONO  =      F    monopole corrections only (constant potential shift)
   LDIPOL =      F    correct potential (dipole corrections)
   IDIPOL =      0    1-x, 2-y, 3-z, 4-all directions 
   EPSILON=  1.0000000 bulk dielectric constant

 Exchange correlation treatment:
   GGA     =    --    GGA type
   LEXCH   =     8    internal setting for exchange type
   VOSKOWN=      0    Vosko Wilk Nusair interpolation
   LHFCALC =     F    Hartree Fock is set to
   LHFONE  =     F    Hartree Fock one center treatment
   AEXX    =    0.0000 exact exchange contribution

 Linear response parameters
   LEPSILON=     F    determine dielectric tensor
   LRPA    =     F    only Hartree local field effects (RPA)
   LNABLA  =     F    use nabla operator in PAW spheres
   LVEL    =     F    velocity operator in full k-point grid
   LINTERFAST=   F  fast interpolation
   KINTER  =     0    interpolate to denser k-point grid
   CSHIFT  =0.1000    complex shift for real part using Kramers Kronig
   OMEGAMAX=  -1.0    maximum frequency
   DEG_THRESHOLD= 0.2000000E-02 threshold for treating states as degnerate
   RTIME   =    0.100 relaxation time in fs

 Orbital magnetization related:
   ORBITALMAG=     F  switch on orbital magnetization
   LCHIMAG   =     F  perturbation theory with respect to B field
   DQ        =  0.001000  dq finite difference perturbation B field



--------------------------------------------------------------------------------------------------------


 conjugate gradient relaxation of ions
 charge density and potential will be updated during run
 non-spin polarized calculation
 Variant of blocked Davidson
 Davidson routine will perform the subspace rotation
 perform sub-space diagonalisation
    after iterative eigenvector-optimisation
 modified Broyden-mixing scheme, WC =      100.0
 initial mixing is a Kerker type mixing with AMIX =  0.4000 and BMIX =      1.0000
 Hartree-type preconditioning will be used
 using additional bands            4
 reciprocal scheme for non local part
 use partial core corrections
 calculate Harris-corrections to forces 
   (improved forces if not selfconsistent)
 use gradient corrections 
 use of overlap-Matrix (Vanderbilt PP)
 Gauss-broadening in eV      SIGMA  =   0.10


--------------------------------------------------------------------------------------------------------


  energy-cutoff  :      450.00
  volume of cell :       13.10
      direct lattice vectors                 reciprocal lattice vectors
     2.100000000  0.000000000  0.000000000     0.476190476  0.274928700  0.000000000
    -1.050000000  1.818653348  0.000000000     0.000000000  0.549857399  0.000000000
     0.000000000  0.000000000  3.429279000     0.000000000  0.000000000  0.291606486

  length of vectors
     2.100000000  2.100000000  3.429279000     0.549857399  0.549857399  0.291606486


 
 k-points in units of 2pi/SCALE and weight: K-Points                                
   0.08333333  0.14433757  0.05103114       0.019
   0.25000000  0.24056261  0.05103114       0.037
   0.41666667  0.33678766  0.05103114       0.037
  -0.41666667 -0.14433757  0.05103114       0.037
  -0.25000000 -0.04811252  0.05103114       0.037
  -0.08333333  0.04811252  0.05103114       0.019
   0.25000000  0.43301270  0.05103114       0.019
   0.41666667  0.52923775  0.05103114       0.037
  -0.41666667  0.04811252  0.05103114       0.037
  -0.25000000  0.14433757  0.05103114       0.019
   0.41666667  0.72168784  0.05103114       0.019
  -0.41666667  0.24056261  0.05103114       0.019
   0.08333333  0.14433757  0.15309341       0.019
   0.25000000  0.24056261  0.15309341       0.037
   0.41666667  0.33678766  0.15309341       0.037
  -0.41666667 -0.14433757  0.15309341       0.037
  -0.25000000 -0.04811252  0.15309341       0.037
  -0.08333333  0.04811252  0.15309341       0.019
   0.25000000  0.43301270  0.15309341       0.019
   0.41666667  0.52923775  0.15309341       0.037
  -0.41666667  0.04811252  0.15309341       0.037
  -0.25000000  0.14433757  0.15309341       0.019
   0.41666667  0.72168784  0.15309341       0.019
  -0.41666667  0.24056261  0.15309341       0.019
   0.08333333  0.14433757  0.25515568       0.019
   0.25000000  0.24056261  0.25515568       0.037
   0.41666667  0.33678766  0.25515568       0.037
  -0.41666667 -0.14433757  0.25515568       0.037
  -0.25000000 -0.04811252  0.25515568       0.037
  -0.08333333  0.04811252  0.25515568       0.019
   0.25000000  0.43301270  0.25515568       0.019
   0.41666667  0.52923775  0.25515568       0.037
  -0.41666667  0.04811252  0.25515568       0.037
  -0.25000000  0.14433757  0.25515568       0.019
   0.41666667  0.72168784  0.25515568       0.019
  -0.41666667  0.24056261  0.25515568       0.019
 
 k-points in reciprocal lattice and weights: K-Points                                
   0.08333333  0.08333333  0.08333333       0.019
   0.25000000  0.08333333  0.08333333       0.037
   0.41666667  0.08333333  0.08333333       0.037
  -0.41666667  0.08333333  0.08333333       0.037
  -0.25000000  0.08333333  0.08333333       0.037
  -0.08333333  0.08333333  0.08333333       0.019
   0.25000000  0.25000000  0.08333333       0.019
   0.41666667  0.25000000  0.08333333       0.037
  -0.41666667  0.25000000  0.08333333       0.037
  -0.25000000  0.25000000  0.08333333       0.019
   0.41666667  0.41666667  0.08333333       0.019
  -0.41666667  0.41666667  0.08333333       0.019
   0.08333333  0.08333333  0.25000000       0.019
   0.25000000  0.08333333  0.25000000       0.037
   0.41666667  0.08333333  0.25000000       0.037
  -0.41666667  0.08333333  0.25000000       0.037
  -0.25000000  0.08333333  0.25000000       0.037
  -0.08333333  0.08333333  0.25000000       0.019
   0.25000000  0.25000000  0.25000000       0.019
   0.41666667  0.25000000  0.25000000       0.037
  -0.41666667  0.25000000  0.25000000       0.037
  -0.25000000  0.25000000  0.25000000       0.019
   0.41666667  0.41666667  0.25000000       0.019
  -0.41666667  0.41666667  0.25000000       0.019
   0.08333333  0.08333333  0.41666667       0.019
   0.25000000  0.08333333  0.41666667       0.037
   0.41666667  0.08333333  0.41666667       0.037
  -0.41666667  0.08333333  0.41666667       0.037
  -0.25000000  0.08333333  0.41666667       0.037
  -0.08333333  0.08333333  0.41666667       0.019
   0.25000000  0.25000000  0.41666667       0.019
   0.41666667  0.25000000  0.41666667       0.037
  -0.41666667  0.25000000  0.41666667       0.037
  -0.25000000  0.25000000  0.41666667       0.019
   0.41666667  0.41666667  0.41666667       0.019
  -0.41666667  0.41666667  0.41666667       0.019
 
 position of ions in fractional coordinates (direct lattice) 
   0.00000000  0.00000000  0.00000000
   0.33333333  0.66666667  0.50000000
 
 position of ions in cartesian coordinates  (Angst):
   0.00000000  0.00000000  0.00000000
  -0.00000000  1.21243557  1.71463950
 


--------------------------------------------------------------------------------------------------------


 k-point  1 :   0.0833 0.0833 0.0833  plane waves:     282
 k-point  2 :   0.2500 0.0833 0.0833  plane waves:     283
 k-point  3 :   0.4167 0.0833 0.0833  plane waves:     284
 k-point  4 :  -0.4167 0.0833 0.0833  plane waves:     280
 k-point  5 :  -0.2500 0.0833 0.0833  plane waves:     282
 k-point  6 :  -0.0833 0.0833 0.0833  plane waves:     292
 k-point  7 :   0.2500 0.2500 0.0833  plane waves:     282
 k-point  8 :   0.4167 0.2500 0.0833  plane waves:     282
 k-point  9 :  -0.4167 0.2500 0.0833  plane waves:     281
 k-point 10 :  -0.2500 0.2500 0.0833  plane waves:     283
 k-point 11 :   0.4167 0.4167 0.0833  plane waves:     282
 k-point 12 :  -0.4167 0.4167 0.0833  plane waves:     280
 k-point 13 :   0.0833 0.0833 0.2500  plane waves:     290
 k-point 14 :   0.2500 0.0833 0.2500  plane waves:     283
 k-point 15 :   0.4167 0.0833 0.2500  plane waves:     284
 k-point 16 :  -0.4167 0.0833 0.2500  plane waves:     284
 k-point 17 :  -0.2500 0.0833 0.2500  plane waves:     285
 k-point 18 :  -0.0833 0.0833 0.2500  plane waves:     290
 k-point 19 :   0.2500 0.2500 0.2500  plane waves:     283
 k-point 20 :   0.4167 0.2500 0.2500  plane waves:     282
 k-point 21 :  -0.4167 0.2500 0.2500  plane waves:     285
 k-point 22 :  -0.2500 0.2500 0.2500  plane waves:     285
 k-point 23 :   0.4167 0.4167 0.2500  plane waves:     278
 k-point 24 :  -0.4167 0.4167 0.2500  plane waves:     286
 k-point 25 :   0.0833 0.0833 0.4167  plane waves:     294
 k-point 26 :   0.2500 0.0833 0.4167  plane waves:     286
 k-point 27 :   0.4167 0.0833 0.4167  plane waves:     279
 k-point 28 :  -0.4167 0.0833 0.4167  plane waves:     282
 k-point 29 :  -0.2500 0.0833 0.4167  plane waves:     292
 k-point 30 :  -0.0833 0.0833 0.4167  plane waves:     294
 k-point 31 :   0.2500 0.2500 0.4167  plane waves:     284
 k-point 32 :   0.4167 0.2500 0.4167  plane waves:     280
 k-point 33 :  -0.4167 0.2500 0.4167  plane waves:     287
 k-point 34 :  -0.2500 0.2500 0.4167  plane waves:     285
 k-point 35 :   0.4167 0.4167 0.4167  plane waves:     280
 k-point 36 :  -0.4167 0.4167 0.4167  plane waves:     282

 maximum and minimum number of plane-waves per node :       294      278

 maximum number of plane-waves:       294
 maximum index in each direction: 
   IXMAX=    4   IYMAX=    3   IZMAX=    5
   IXMIN=   -4   IYMIN=   -4   IZMIN=   -6

 WARNING: aliasing errors must be expected set NGX to  18 to avoid them
 NGY is ok and might be reduce to  16
 NGZ is ok and might be reduce to  24
 aliasing errors are usually negligible using standard VASP settings
 and one can safely disregard these warnings

 serial   3D FFT for wavefunctions
 parallel 3D FFT for charge:
    minimum data exchange during FFTs selected (reduces bandwidth)


 total amount of memory used by VASP on root node    32364. kBytes
========================================================================

   base      :      30000. kBytes
   nonl-proj :        691. kBytes
   fftplans  :        452. kBytes
   grid      :        856. kBytes
   one-center:          6. kBytes
   wavefun   :        359. kBytes
 
     INWAV:  cpu time    0.0000: real time    0.0000
 Broyden mixing: mesh for mixing (old mesh)
   NGX =  7   NGY =  7   NGZ = 11
  (NGX  = 32   NGY  = 32   NGZ  = 48)
  gives a total of    539 points

 initial charge density was supplied:
 charge density of overlapping atoms calculated
 number of electron       8.0000000 magnetization 
 keeping initial charge density in first step


--------------------------------------------------------------------------------------------------------


 Maximum index for augmentation-charges         3813 (set IRDMAX)


--------------------------------------------------------------------------------------------------------


 First call to EWALD:  gamma=   0.752
 Maximum number of real-space cells 3x 3x 2
 Maximum number of reciprocal cells 3x 3x 4

 FEWALD executed in parallel
    FEWALD:  cpu time    0.0010: real time    0.0011


----------------------------------------- Iteration    1(   1)  ---------------------------------------


    POTLOK:  cpu time    0.0190: real time    0.0122
    SETDIJ:  cpu time    0.0040: real time    0.0020
     EDDAV:  cpu time    1.2388: real time    0.7856
       DOS:  cpu time    0.0020: real time    0.0011
    --------------------------------------------
      LOOP:  cpu time    1.2668: real time    0.8032

 eigenvalue-minimisations  :   632
 total energy-change (2. order) : 0.1394374E+02  (-0.4054067E+03)
 number of electron       8.0000000 magnetization 
 augmentation part        8.0000000 magnetization 

 Free energy of the ion-electron system (eV)
  ---------------------------------------------------
  alpha Z        PSCENC =        10.28116797
  Ewald energy   TEWEN  =      -355.67318294
  -Hartree energ DENC   =        -0.47103250
  -exchange      EXHF   =         0.00000000
  -V(xc)+E(xc)   XCENC  =       -12.73799181
  PAW double counting   =       176.24759923     -141.06103558
  entropy T*S    EENTRO =        -0.00265963
  eigenvalues    EBANDS =       131.22894990
  atomic energy  EATOM  =       206.13192747
  Solvation  Ediel_sol  =         0.00000000
  ---------------------------------------------------
  free energy    TOTEN  =        13.94374212 eV

  energy without entropy =       13.94640175  energy(sigma->0) =       13.94507193


--------------------------------------------------------------------------------------------------------




----------------------------------------- Iteration    1(   2)  ---------------------------------------


     EDDAV:  cpu time    1.7307: real time    1.1039
       DOS:  cpu time    0.0010: real time    0.0009
    --------------------------------------------
      LOOP:  cpu time    1.7337: real time    1.1073

 eigenvalue-minimisations  :   880
 total energy-change (2. order) :-0.1448700E+02  (-0.1371123E+02)
 number of electron       8.0000000 magnetization 
 augmentation part        8.0000000 magnetization 

 Free energy of the ion-electron system (eV)
  ---------------------------------------------------
  alpha Z        PSCENC =        10.28116797
  Ewald energy   TEWEN  =      -355.67318294
  -Hartree energ DENC   =        -0.47103250
  -exchange      EXHF   =         0.00000000
  -V(xc)+E(xc)   XCENC  =       -12.73799181
  PAW double counting   =       176.24759923     -141.06103558
  entropy T*S    EENTRO =        -0.00158249
  eigenvalues    EBANDS =       116.74087728
  atomic energy  EATOM  =       206.13192747
  Solvation  Ediel_sol  =         0.00000000
  ---------------------------------------------------
  free energy    TOTEN  =        -0.54325335 eV

  energy without entropy =       -0.54167086  energy(sigma->0) =       -0.54246211


--------------------------------------------------------------------------------------------------------




----------------------------------------- Iteration    1(   3)  ---------------------------------------


     EDDAV:  cpu time    1.7067: real time    1.1055
       DOS:  cpu time    0.0020: real time    0.0010
    --------------------------------------------
      LOOP:  cpu time    1.9797: real time    1.2938

 eigenvalue-minimisations  :   664
 total energy-change (2. order) :-0.8796765E-01  (-0.8791379E-01)
 number of electron       8.0000000 magnetization 
 augmentation part        8.0000000 magnetization 

 Free energy of the ion-electron system (eV)
  ---------------------------------------------------
  alpha Z        PSCENC =        10.28116797
  Ewald energy   TEWEN  =      -355.67318294
  -Hartree energ DENC   =        -0.47103250
  -exchange      EXHF   =         0.00000000
  -V(xc)+E(xc)   XCENC  =       -12.73799181
  PAW double counting   =       176.24759923     -141.06103558
  entropy T*S    EENTRO =        -0.00144806
  eigenvalues    EBANDS =       116.65277520
  atomic energy  EATOM  =       206.13192747
  Solvation  Ediel_sol  =         0.00000000
  ---------------------------------------------------
  free energy    TOTEN  =        -0.63122100 eV

  energy without entropy =       -0.62977295  energy(sigma->0) =       -0.63049698


--------------------------------------------------------------------------------------------------------




----------------------------------------- Iteration    1(   4)  ---------------------------------------


     EDDAV:  cpu time    2.6476: real time    1.6853
       DOS:  cpu time    0.0010: real time    0.0011
    --------------------------------------------
      LOOP:  cpu time    2.8286: real time    1.8231

 eigenvalue-minimisations  :   944
 total energy-change (2. order) :-0.8448729E-04  (-0.8448527E-04)
 number of electron       8.0000000 magnetization 
 augmentation part        8.0000000 magnetization 

 Free energy of the ion-electron system (eV)
  ---------------------------------------------------
  alpha Z        PSCENC =        10.28116797
  Ewald energy   TEWEN  =      -355.67318294
  -Hartree energ DENC   =        -0.47103250
  -exchange      EXHF   =         0.00000000
  -V(xc)+E(xc)   XCENC  =       -12.73799181
  PAW double counting   =       176.24759923     -141.06103558
  entropy T*S    EENTRO =        -0.00144793
  eigenvalues    EBANDS =       116.65269058
  atomic energy  EATOM  =       206.13192747
  Solvation  Ediel_sol  =         0.00000000
  ---------------------------------------------------
  free energy    TOTEN  =        -0.63130549 eV

  energy without entropy =       -0.62985757  energy(sigma->0) =       -0.63058153


--------------------------------------------------------------------------------------------------------




----------------------------------------- Iteration    1(   5)  ---------------------------------------


     EDDAV:  cpu time    1.5828: real time    1.0428
       DOS:  cpu time    0.0020: real time    0.0010
    CHARGE:  cpu time    0.0150: real time    0.0087
    MIXING:  cpu time    0.0010: real time    0.0005
    --------------------------------------------
      LOOP:  cpu time    1.6048: real time    1.0556

 eigenvalue-minimisations  :   680
 total energy-change (2. order) :-0.3129398E-07  (-0.3360320E-07)
 number of electron       8.0000000 magnetization 
 augmentation part       -0.4971466 magnetization 

 Broyden mixing:
  rms(total) = 0.16894E+01    rms(broyden)= 0.16894E+01
  rms(prec ) = 0.17575E+01
  weight for this iteration     100.00

 Free energy of the ion-electron system (eV)
  ---------------------------------------------------
  alpha Z        PSCENC =        10.28116797
  Ewald energy   TEWEN  =      -355.67318294
  -Hartree energ DENC   =        -0.47103250
  -exchange      EXHF   =         0.00000000
  -V(xc)+E(xc)   XCENC  =       -12.73799181
  PAW double counting   =       176.24759923     -141.06103558
  entropy T*S    EENTRO =        -0.00144793
  eigenvalues    EBANDS =       116.65269055
  atomic energy  EATOM  =       206.13192747
  Solvation  Ediel_sol  =         0.00000000
  ---------------------------------------------------
  free energy    TOTEN  =        -0.63130552 eV

  energy without entropy =       -0.62985760  energy(sigma->0) =       -0.63058156


--------------------------------------------------------------------------------------------------------




----------------------------------------- Iteration    1(   6)  ---------------------------------------


    POTLOK:  cpu time    0.0220: real time    0.0119
    SETDIJ:  cpu time    0.0060: real time    0.0053
     EDDAV:  cpu time    1.9427: real time    1.1809
       DOS:  cpu time    0.0020: real time    0.0010
    CHARGE:  cpu time    0.0140: real time    0.0102
    MIXING:  cpu time    0.0020: real time    0.0007
    --------------------------------------------
      LOOP:  cpu time    1.9927: real time    1.2124

 eigenvalue-minimisations  :   688
 total energy-change (2. order) : 0.2185117E+00  (-0.1093157E-02)
 number of electron       8.0000000 magnetization 
 augmentation part       -0.4992729 magnetization 

 Broyden mixing:
  rms(total) = 0.95622E+00    rms(broyden)= 0.95622E+00
  rms(prec ) = 0.10008E+01
  weight for this iteration     100.00

 eigenvalues of (default mixing * dielectric matrix)
  average eigenvalue GAMMA=   2.2984
  2.2984

 Free energy of the ion-electron system (eV)
  ---------------------------------------------------
  alpha Z        PSCENC =        10.28116797
  Ewald energy   TEWEN  =      -355.67318294
  -Hartree energ DENC   =        -0.78861944
  -exchange      EXHF   =         0.00000000
  -V(xc)+E(xc)   XCENC  =       -12.42539658
  PAW double counting   =      1476.48733225    -1441.64248678
  entropy T*S    EENTRO =        -0.00151138
  eigenvalues    EBANDS =       117.21797557
  atomic energy  EATOM  =       206.13192747
  Solvation  Ediel_sol  =         0.00000000
  ---------------------------------------------------
  free energy    TOTEN  =        -0.41279386 eV

  energy without entropy =       -0.41128248  energy(sigma->0) =       -0.41203817


--------------------------------------------------------------------------------------------------------




----------------------------------------- Iteration    1(   7)  ---------------------------------------


    POTLOK:  cpu time    0.0300: real time    0.0203
    SETDIJ:  cpu time    0.0090: real time    0.0050
     EDDAV:  cpu time    1.4508: real time    0.9639
       DOS:  cpu time    0.0010: real time    0.0010
    CHARGE:  cpu time    0.0180: real time    0.0122
    MIXING:  cpu time    0.0010: real time    0.0008
    --------------------------------------------
      LOOP:  cpu time    1.5138: real time    1.0059

 eigenvalue-minimisations  :   696
 total energy-change (2. order) : 0.1254534E+00  (-0.2394302E-02)
 number of electron       8.0000000 magnetization 
 augmentation part       -0.5033295 magnetization 

 Broyden mixing:
  rms(total) = 0.53959E-01    rms(broyden)= 0.53959E-01
  rms(prec ) = 0.61527E-01
  weight for this iteration     100.00

 eigenvalues of (default mixing * dielectric matrix)
  average eigenvalue GAMMA=   2.6246
  2.6246  2.6246

 Free energy of the ion-electron system (eV)
  ---------------------------------------------------
  alpha Z        PSCENC =        10.28116797
  Ewald energy   TEWEN  =      -355.67318294
  -Hartree energ DENC   =        -1.39761897
  -exchange      EXHF   =         0.00000000
  -V(xc)+E(xc)   XCENC  =       -11.94886600
  PAW double counting   =      5373.64060407    -5339.32286330
  entropy T*S    EENTRO =        -0.00167382
  eigenvalues    EBANDS =       118.00316508
  atomic energy  EATOM  =       206.13192747
  Solvation  Ediel_sol  =         0.00000000
  ---------------------------------------------------
  free energy    TOTEN  =        -0.28734045 eV

  energy without entropy =       -0.28566662  energy(sigma->0) =       -0.28650353


--------------------------------------------------------------------------------------------------------




----------------------------------------- Iteration    1(   8)  ---------------------------------------


    POTLOK:  cpu time    0.0140: real time    0.0087
    SETDIJ:  cpu time    0.0100: real time    0.0067
     EDDAV:  cpu time    1.7597: real time    1.1748
       DOS:  cpu time    0.0100: real time    0.0087
    CHARGE:  cpu time    0.0130: real time    0.0055
    MIXING:  cpu time    0.0010: real time    0.0009
    --------------------------------------------
      LOOP:  cpu time    1.8107: real time    1.2081

 eigenvalue-minimisations  :   856
 total energy-change (2. order) : 0.8995717E-03  (-0.3368705E-04)
 number of electron       8.0000000 magnetization 
 augmentation part       -0.5037839 magnetization 

 Broyden mixing:
  rms(total) = 0.18462E-01    rms(broyden)= 0.18462E-01
  rms(prec ) = 0.19984E-01
  weight for this iteration     100.00

 eigenvalues of (default mixing * dielectric matrix)
  average eigenvalue GAMMA=   2.0696
  1.1639  2.3420  2.7030

 Free energy of the ion-electron system (eV)
  ---------------------------------------------------
  alpha Z        PSCENC =        10.28116797
  Ewald energy   TEWEN  =      -355.67318294
  -Hartree energ DENC   =        -1.45275546
  -exchange      EXHF   =         0.00000000
  -V(xc)+E(xc)   XCENC  =       -11.90640262
  PAW double counting   =      5182.98414664    -5148.69668158
  entropy T*S    EENTRO =        -0.00168957
  eigenvalues    EBANDS =       118.04702921
  atomic energy  EATOM  =       206.13192747
  Solvation  Ediel_sol  =         0.00000000
  ---------------------------------------------------
  free energy    TOTEN  =        -0.28644087 eV

  energy without entropy =       -0.28475130  energy(sigma->0) =       -0.28559609


--------------------------------------------------------------------------------------------------------




----------------------------------------- Iteration    1(   9)  ---------------------------------------


    POTLOK:  cpu time    0.0310: real time    0.0210
    SETDIJ:  cpu time    0.0080: real time    0.0055
     EDDAV:  cpu time    1.2358: real time    0.8253
       DOS:  cpu time    0.0020: real time    0.0009
    CHARGE:  cpu time    0.0130: real time    0.0081
    MIXING:  cpu time    0.0010: real time    0.0008
    --------------------------------------------
      LOOP:  cpu time    1.2958: real time    0.8662

 eigenvalue-minimisations  :   696
 total energy-change (2. order) : 0.5948508E-04  (-0.2024726E-05)
 number of electron       8.0000000 magnetization 
 augmentation part       -0.5039052 magnetization 

 Broyden mixing:
  rms(total) = 0.66427E-03    rms(broyden)= 0.66426E-03
  rms(prec ) = 0.12748E-02
  weight for this iteration     100.00

 eigenvalues of (default mixing * dielectric matrix)
  average eigenvalue GAMMA=   2.0075
  0.9863  2.5817  2.4209  2.0410

 Free energy of the ion-electron system (eV)
  ---------------------------------------------------
  alpha Z        PSCENC =        10.28116797
  Ewald energy   TEWEN  =      -355.67318294
  -Hartree energ DENC   =        -1.47277580
  -exchange      EXHF   =         0.00000000
  -V(xc)+E(xc)   XCENC  =       -11.89237113
  PAW double counting   =      5281.86549334    -5247.59272705
  entropy T*S    EENTRO =        -0.00169434
  eigenvalues    EBANDS =       118.06778108
  atomic energy  EATOM  =       206.13192747
  Solvation  Ediel_sol  =         0.00000000
  ---------------------------------------------------
  free energy    TOTEN  =        -0.28638139 eV

  energy without entropy =       -0.28468705  energy(sigma->0) =       -0.28553422


--------------------------------------------------------------------------------------------------------




----------------------------------------- Iteration    1(  10)  ---------------------------------------


    POTLOK:  cpu time    0.0140: real time    0.0084
    SETDIJ:  cpu time    0.0110: real time    0.0076
     EDDAV:  cpu time    1.0498: real time    0.7030
       DOS:  cpu time    0.0030: real time    0.0011
    --------------------------------------------
      LOOP:  cpu time    1.0868: real time    0.7279

 eigenvalue-minimisations  :   384
 total energy-change (2. order) : 0.6864248E-06  (-0.1273755E-06)
 number of electron       8.0000000 magnetization 
 augmentation part       -0.5039052 magnetization 

 Free energy of the ion-electron system (eV)
  ---------------------------------------------------
  alpha Z        PSCENC =        10.28116797
  Ewald energy   TEWEN  =      -355.67318294
  -Hartree energ DENC   =        -1.47266324
  -exchange      EXHF   =         0.00000000
  -V(xc)+E(xc)   XCENC  =       -11.89258561
  PAW double counting   =      5279.98004098    -5245.70725473
  entropy T*S    EENTRO =        -0.00169367
  eigenvalues    EBANDS =       118.06786305
  atomic energy  EATOM  =       206.13192747
  Solvation  Ediel_sol  =         0.00000000
  ---------------------------------------------------
  free energy    TOTEN  =        -0.28638070 eV

  energy without entropy =       -0.28468703  energy(sigma->0) =       -0.28553387


--------------------------------------------------------------------------------------------------------




 average (electrostatic) potential at core
  the test charge radii are     0.9892
  (the norm of the test charge is              1.0000)
       1 -65.9504       2 -65.9504
 
 
 
 E-fermi :  24.0968     XC(G=0): -14.7313     alpha+bet :-36.6259


 k-point     1 :       0.0833    0.0833    0.0833
  band No.  band energies     occupation 
      1       1.6892      2.00000
      2      11.0969      2.00000
      3      15.4017      2.00000
      4      30.8232      0.00000
      5      32.6557      0.00000
      6      38.8031      0.00000
      7      39.0007      0.00000
      8      39.8379      0.00000

 k-point     2 :       0.2500    0.0833    0.0833
  band No.  band energies     occupation 
      1       4.6233      2.00000
      2      13.7148      2.00000
      3      17.4499      2.00000
      4      22.2902      2.00000
      5      27.7231      0.00000
      6      30.6401      0.00000
      7      34.4660      0.00000
      8      36.8072      0.00000

 k-point     3 :       0.4167    0.0833    0.0833
  band No.  band energies     occupation 
      1       9.6505      2.00000
      2      12.8842      2.00000
      3      18.7531      2.00000
      4      21.7724      2.00000
      5      22.5846      2.00000
      6      25.0529      0.00000
      7      30.9489      0.00000
      8      35.0828      0.00000

 k-point     4 :      -0.4167    0.0833    0.0833
  band No.  band energies     occupation 
      1       6.9043      2.00000
      2      15.2866      2.00000
      3      16.9777      2.00000
      4      20.9835      2.00000
      5      25.0754      0.00000
      6      27.3121      0.00000
      7      32.2236      0.00000
      8      35.6501      0.00000

 k-point     5 :      -0.2500    0.0833    0.0833
  band No.  band energies     occupation 
      1       2.8738      2.00000
      2      12.1578      2.00000
      3      16.3526      2.00000
      4      26.4178      0.00000
      5      29.9272      0.00000
      6      34.9002      0.00000
      7      37.0241      0.00000
      8      38.7144      0.00000

 k-point     6 :      -0.0833    0.0833    0.0833
  band No.  band energies     occupation 
      1       1.0913      2.00000
      2      10.5626      2.00000
      3      14.8959      2.00000
      4      33.9091      0.00000
      5      36.4366      0.00000
      6      37.7239      0.00000
      7      39.7141      0.00000
      8      41.1079      0.00000

 k-point     7 :       0.2500    0.2500    0.0833
  band No.  band energies     occupation 
      1       8.5756      2.00000
      2      16.5405      2.00000
      3      17.9678      2.00000
      4      18.7136      2.00000
      5      23.7889      1.99999
      6      27.4367      0.00000
      7      28.3401      0.00000
      8      33.0502      0.00000

 k-point     8 :       0.4167    0.2500    0.0833
  band No.  band energies     occupation 
      1      11.2635      2.00000
      2      14.4225      2.00000
      3      17.2198      2.00000
      4      20.6508      2.00000
      5      23.4429      2.00000
      6      25.2039      0.00000
      7      27.6310      0.00000
      8      31.4804      0.00000

 k-point     9 :      -0.4167    0.2500    0.0833
  band No.  band energies     occupation 
      1       6.3399      2.00000
      2      15.1861      2.00000
      3      18.0653      2.00000
      4      20.6164      2.00000
      5      24.5151      0.00000
      6      28.8816      0.00000
      7      32.0006      0.00000
      8      34.4097      0.00000

 k-point    10 :      -0.2500    0.2500    0.0833
  band No.  band energies     occupation 
      1       3.4606      2.00000
      2      12.6819      2.00000
      3      16.7624      2.00000
      4      24.2053      0.12466
      5      31.0468      0.00000
      6      33.2347      0.00000
      7      33.5448      0.00000
      8      40.0769      0.00000

 k-point    11 :       0.4167    0.4167    0.0833
  band No.  band energies     occupation 
      1      11.4690      2.00000
      2      12.1927      2.00000
      3      19.7668      2.00000
      4      20.7679      2.00000
      5      21.8811      2.00000
      6      24.8080      0.00000
      7      30.5478      0.00000
      8      31.0924      0.00000

 k-point    12 :      -0.4167    0.4167    0.0833
  band No.  band energies     occupation 
      1       8.0195      2.00000
      2      14.2394      2.00000
      3      17.3134      2.00000
      4      21.8085      2.00000
      5      23.4378      2.00000
      6      26.8425      0.00000
      7      31.6017      0.00000
      8      37.8259      0.00000

 k-point    13 :       0.0833    0.0833    0.2500
  band No.  band energies     occupation 
      1       2.3574      2.00000
      2       8.1569      2.00000
      3      19.3766      2.00000
      4      31.1990      0.00000
      5      32.8998      0.00000
      6      34.4380      0.00000
      7      37.1666      0.00000
      8      38.3215      0.00000

 k-point    14 :       0.2500    0.0833    0.2500
  band No.  band energies     occupation 
      1       5.2717      2.00000
      2      10.8800      2.00000
      3      20.4939      2.00000
      4      23.5257      2.00000
      5      26.4139      0.00000
      6      30.3640      0.00000
      7      33.8796      0.00000
      8      37.0764      0.00000

 k-point    15 :       0.4167    0.0833    0.2500
  band No.  band energies     occupation 
      1      10.2485      2.00000
      2      13.2467      2.00000
      3      16.3844      2.00000
      4      19.2222      2.00000
      5      25.2351      0.00000
      6      28.0922      0.00000
      7      32.2747      0.00000
      8      33.3888      0.00000

 k-point    16 :      -0.4167    0.0833    0.2500
  band No.  band energies     occupation 
      1       7.5356      2.00000
      2      12.8988      2.00000
      3      17.6437      2.00000
      4      22.6921      2.00000
      5      23.9686      1.93001
      6      28.9237      0.00000
      7      32.9624      0.00000
      8      34.8754      0.00000

 k-point    17 :      -0.2500    0.0833    0.2500
  band No.  band energies     occupation 
      1       3.5340      2.00000
      2       9.2599      2.00000
      3      20.1961      2.00000
      4      26.9625      0.00000
      5      29.8153      0.00000
      6      32.6926      0.00000
      7      35.0138      0.00000
      8      37.7769      0.00000

 k-point    18 :      -0.0833    0.0833    0.2500
  band No.  band energies     occupation 
      1       1.7637      2.00000
      2       7.5999      2.00000
      3      18.9173      2.00000
      4      33.5164      0.00000
      5      35.1939      0.00000
      6      36.8454      0.00000
      7      37.4609      0.00000
      8      40.0944      0.00000

 k-point    19 :       0.2500    0.2500    0.2500
  band No.  band energies     occupation 
      1       9.1930      2.00000
      2      14.3532      2.00000
      3      18.4841      2.00000
      4      19.5216      2.00000
      5      23.9319      1.98029
      6      25.6655      0.00000
      7      28.9932      0.00000
      8      36.4077      0.00000

 k-point    20 :       0.4167    0.2500    0.2500
  band No.  band energies     occupation 
      1      11.8452      2.00000
      2      14.7554      2.00000
      3      16.9114      2.00000
      4      18.9388      2.00000
      5      21.9491      2.00000
      6      24.5715      0.00000
      7      30.1295      0.00000
      8      34.2922      0.00000

 k-point    21 :      -0.4167    0.2500    0.2500
  band No.  band energies     occupation 
      1       6.9760      2.00000
      2      12.4450      2.00000
      3      19.8391      2.00000
      4      22.0791      2.00000
      5      24.5620      0.00000
      6      27.9279      0.00000
      7      30.2673      0.00000
      8      37.5691      0.00000

 k-point    22 :      -0.2500    0.2500    0.2500
  band No.  band energies     occupation 
      1       4.1169      2.00000
      2       9.8048      2.00000
      3      20.4296      2.00000
      4      24.9605      0.00000
      5      28.8146      0.00000
      6      33.7054      0.00000
      7      33.9938      0.00000
      8      37.9711      0.00000

 k-point    23 :       0.4167    0.4167    0.2500
  band No.  band energies     occupation 
      1      12.0289      2.00000
      2      12.7143      2.00000
      3      18.0300      2.00000
      4      18.0427      2.00000
      5      22.8680      2.00000
      6      27.1403      0.00000
      7      30.6615      0.00000
      8      32.7985      0.00000

 k-point    24 :      -0.4167    0.4167    0.2500
  band No.  band energies     occupation 
      1       8.6398      2.00000
      2      13.5421      2.00000
      3      16.0770      2.00000
      4      20.8072      2.00000
      5      25.1579      0.00000
      6      29.8850      0.00000
      7      32.0660      0.00000
      8      36.1601      0.00000

 k-point    25 :       0.0833    0.0833    0.4167
  band No.  band energies     occupation 
      1       3.6801      2.00000
      2       5.6291      2.00000
      3      23.9657      1.93630
      4      28.9108      0.00000
      5      32.2992      0.00000
      6      32.9321      0.00000
      7      36.2286      0.00000
      8      36.8305      0.00000

 k-point    26 :       0.2500    0.0833    0.4167
  band No.  band energies     occupation 
      1       6.5541      2.00000
      2       8.4411      2.00000
      3      22.6465      2.00000
      4      24.4963      0.00000
      5      26.5068      0.00000
      6      29.6782      0.00000
      7      32.8003      0.00000
      8      34.7973      0.00000

 k-point    27 :       0.4167    0.0833    0.4167
  band No.  band energies     occupation 
      1      11.3997      2.00000
      2      12.8512      2.00000
      3      15.6500      2.00000
      4      17.0503      2.00000
      5      27.5135      0.00000
      6      29.2464      0.00000
      7      33.4546      0.00000
      8      35.1071      0.00000

 k-point    28 :      -0.4167    0.0833    0.4167
  band No.  band energies     occupation 
      1       8.7812      2.00000
      2      10.6009      2.00000
      3      18.8311      2.00000
      4      20.5439      2.00000
      5      27.1650      0.00000
      6      29.4172      0.00000
      7      32.5762      0.00000
      8      35.3563      0.00000

 k-point    29 :      -0.2500    0.0833    0.4167
  band No.  band energies     occupation 
      1       4.8406      2.00000
      2       6.7655      2.00000
      3      24.4875      0.00000
      4      27.9341      0.00000
      5      28.5306      0.00000
      6      29.8769      0.00000
      7      34.0289      0.00000
      8      35.2959      0.00000

 k-point    30 :      -0.0833    0.0833    0.4167
  band No.  band energies     occupation 
      1       3.0945      2.00000
      2       5.0555      2.00000
      3      23.5797      2.00000
      4      28.6810      0.00000
      5      35.4299      0.00000
      6      36.4521      0.00000
      7      37.6472      0.00000
      8      38.7868      0.00000

 k-point    31 :       0.2500    0.2500    0.4167
  band No.  band energies     occupation 
      1      10.4078      2.00000
      2      12.1695      2.00000
      3      19.3840      2.00000
      4      20.0076      2.00000
      5      23.0722      2.00000
      6      23.8322      1.99982
      7      32.6996      0.00000
      8      37.4400      0.00000

 k-point    32 :       0.4167    0.2500    0.4167
  band No.  band energies     occupation 
      1      12.9572      2.00000
      2      14.3419      2.00000
      3      16.7583      2.00000
      4      17.8055      2.00000
      5      21.5983      2.00000
      6      22.7561      2.00000
      7      34.6357      0.00000
      8      38.2833      0.00000

 k-point    33 :      -0.4167    0.2500    0.4167
  band No.  band energies     occupation 
      1       8.2327      2.00000
      2      10.0768      2.00000
      3      21.1330      2.00000
      4      22.4510      2.00000
      5      24.9995      0.00000
      6      26.7220      0.00000
      7      31.5970      0.00000
      8      35.6085      0.00000

 k-point    34 :      -0.2500    0.2500    0.4167
  band No.  band energies     occupation 
      1       5.4155      2.00000
      2       7.3281      2.00000
      3      23.9789      1.90454
      4      26.3274      0.00000
      5      27.1732      0.00000
      6      30.7231      0.00000
      7      34.6528      0.00000
      8      36.0817      0.00000

 k-point    35 :       0.4167    0.4167    0.4167
  band No.  band energies     occupation 
      1      13.0233      2.00000
      2      13.4579      2.00000
      3      16.0577      2.00000
      4      16.3216      2.00000
      5      24.1885      0.19438
      6      25.8622      0.00000
      7      34.4417      0.00000
      8      36.2613      0.00000

 k-point    36 :      -0.4167    0.4167    0.4167
  band No.  band energies     occupation 
      1       9.8578      2.00000
      2      11.6034      2.00000
      3      16.8801      2.00000
      4      18.5634      2.00000
      5      28.8858      0.00000
      6      31.5250      0.00000
      7      32.9959      0.00000
      8      34.3829      0.00000


--------------------------------------------------------------------------------------------------------


 soft charge-density along one line, spin component           1
         0         1         2         3         4         5         6         7         8         9
 total charge-density along one line
 
 pseudopotential strength for first ion, spin component:           1
 16.498  23.004   0.000  -0.000  -0.000   0.000  -0.000  -0.000
 23.004  32.080   0.000  -0.000  -0.000   0.000  -0.000  -0.000
  0.000   0.000   3.932  -0.000   0.000   7.309  -0.000   0.000
 -0.000  -0.000  -0.000   3.932  -0.000  -0.000   7.309  -0.000
 -0.000  -0.000   0.000  -0.000   3.932   0.000  -0.000   7.309
  0.000   0.000   7.309  -0.000   0.000  13.600  -0.000   0.000
 -0.000  -0.000  -0.000   7.309  -0.000  -0.000  13.600  -0.000
 -0.000  -0.000   0.000  -0.000   7.309   0.000  -0.000  13.600
 total augmentation occupancy for first ion, spin component:           1
 18.838 -10.351   0.000   0.000   0.000   0.000   0.000   0.000
-10.351   5.953   0.000   0.000   0.000  -0.000   0.000  -0.000
  0.000   0.000   7.766   0.000  -0.000  -2.477   0.000   0.000
  0.000   0.000   0.000   7.790  -0.000   0.000  -2.461   0.000
  0.000   0.000   0.000   0.000   7.766   0.000  -0.000  -2.477
  0.000  -0.000  -2.477   0.000   0.000   0.827  -0.000   0.000
  0.000   0.000   0.000  -2.461   0.000   0.000   0.821   0.000
  0.000   0.000   0.000   0.000  -2.477  -0.000   0.000   0.827


------------------------ aborting loop because EDIFF is reached ----------------------------------------


    CHARGE:  cpu time    0.0240: real time    0.0169
    FORLOC:  cpu time    0.0100: real time    0.0076
    FORNL :  cpu time    0.0290: real time    0.0187
    STRESS:  cpu time    0.1820: real time    0.1204
    FORCOR:  cpu time    0.0280: real time    0.0194
    FORHAR:  cpu time    0.0050: real time    0.0031
    MIXING:  cpu time    0.0050: real time    0.0054
    OFIELD:  cpu time    0.0000: real time    0.0000

  FORCE on cell =-STRESS in cart. coord.  units (eV):
  Direction    XX          YY          ZZ          XY          YZ          ZX
  --------------------------------------------------------------------------------------
  Alpha Z    10.28117    10.28117    10.28117
  Ewald    -118.63894  -118.63894  -118.39554    -0.00000     0.00000    -0.00000
  Hartree     0.47892     0.47892     0.51497    -0.00000    -0.00000    -0.00000
  E(xc)     -33.18986   -33.18986   -33.21430     0.00000     0.00000     0.00000
  Local      -3.49066    -3.49066    -4.18822    -0.00000    -0.00000    -0.00000
  n-local    88.43198    99.51839    94.18462    -3.71662     1.05579    -1.21207
  augment   -12.23456   -12.23456   -12.38236     0.00000    -0.00000    -0.00000
  Kinetic   117.44512    70.59786    96.89124    13.88703    -0.32651    -0.66537
  Fock        0.00000     0.00000     0.00000     0.00000     0.00000     0.00000
  -------------------------------------------------------------------------------------
  Total      31.20273    31.20273    33.69158     0.00000    -0.00000    -0.00000
  in kB    3817.07902  3817.07902  4121.54378     0.00000    -0.00000    -0.00000
  external pressure =     3918.57 kB  Pullay stress =        0.00 kB


 VOLUME and BASIS-vectors are now :
 -----------------------------------------------------------------------------
  energy-cutoff  :      450.00
  volume of cell :       13.10
      direct lattice vectors                 reciprocal lattice vectors
     2.100000000  0.000000000  0.000000000     0.476190476  0.274928700  0.000000000
    -1.050000000  1.818653348  0.000000000     0.000000000  0.549857399  0.000000000
     0.000000000  0.000000000  3.429279000     0.000000000  0.000000000  0.291606486

  length of vectors
     2.100000000  2.100000000  3.429279000     0.549857399  0.549857399  0.291606486


 FORCES acting on ions
    electron-ion (+dipol)            ewald-force                    non-local-force                 convergence-correction
 -----------------------------------------------------------------------------------------------
   -.581E-08 0.335E-08 -.128E-13   -.142E-12 0.116E-12 -.672E-14   0.173E-17 -.347E-17 0.000E+00   0.711E-11 -.411E-11 0.262E-15
   0.231E-07 -.133E-07 -.121E-12   0.146E-12 -.116E-12 0.672E-14   0.173E-17 0.694E-17 0.000E+00   -.688E-11 0.397E-11 -.265E-15
 -----------------------------------------------------------------------------------------------
   0.173E-07 -.997E-08 -.134E-12   0.418E-14 0.289E-15 0.000E+00   0.347E-17 0.347E-17 0.000E+00   0.234E-12 -.135E-12 -.312E-17
 
 
 POSITION                                       TOTAL-FORCE (eV/Angst)
 -----------------------------------------------------------------------------------
      0.00000      0.00000      0.00000         0.000000     -0.000000      0.000000
     -0.00000      1.21244      1.71464        -0.000000      0.000000      0.000000
 -----------------------------------------------------------------------------------
    total drift:                                0.000000     -0.000000     -0.000000


--------------------------------------------------------------------------------------------------------



  FREE ENERGIE OF THE ION-ELECTRON SYSTEM (eV)
  ---------------------------------------------------
  free  energy   TOTEN  =        -0.28638070 eV

  energy  without entropy=       -0.28468703  energy(sigma->0) =       -0.28553387
 


--------------------------------------------------------------------------------------------------------


    POTLOK:  cpu time    0.0330: real time    0.0214


--------------------------------------------------------------------------------------------------------




--------------------------------------------------------------------------------------------------------


    WAVPRE:  cpu time    0.0070: real time    0.0061
 FEWALD executed in parallel
    FEWALD:  cpu time    0.0000: real time    0.0001
    GENKIN:  cpu time    0.0040: real time    0.0043
    ORTHCH:  cpu time    0.1390: real time    0.0953
     LOOP+:  cpu time   17.6493: real time   11.5151


----------------------------------------- Iteration    2(   1)  ---------------------------------------


    POTLOK:  cpu time    0.0770: real time    0.0448
    SETDIJ:  cpu time    0.0100: real time    0.0057
     EDDAV:  cpu time    1.6477: real time    1.0142
       DOS:  cpu time    0.0040: real time    0.0067
    CHARGE:  cpu time    0.0230: real time    0.0126
    MIXING:  cpu time    0.0010: real time    0.0005
    --------------------------------------------
      LOOP:  cpu time    1.7687: real time    1.0875

 eigenvalue-minimisations  :   808
 total energy-change (2. order) :-0.2362387E-02  (-0.2590530E+00)
 number of electron       7.9999999 magnetization 
 augmentation part       -0.5059243 magnetization 

 Broyden mixing:
  rms(total) = 0.10551E+00    rms(broyden)= 0.10551E+00
  rms(prec ) = 0.23909E+00
  weight for this iteration     100.00

 Free energy of the ion-electron system (eV)
  ---------------------------------------------------
  alpha Z        PSCENC =        10.28116797
  Ewald energy   TEWEN  =      -355.49378567
  -Hartree energ DENC   =        -1.47047303
  -exchange      EXHF   =         0.00000000
  -V(xc)+E(xc)   XCENC  =       -11.89381042
  PAW double counting   =      5280.27969264    -5246.00704478
  entropy T*S    EENTRO =        -0.00269785
  eigenvalues    EBANDS =       117.88627989
  atomic energy  EATOM  =       206.13192747
  Solvation  Ediel_sol  =         0.00000000
  ---------------------------------------------------
  free energy    TOTEN  =        -0.28874378 eV

  energy without entropy =       -0.28604593  energy(sigma->0) =       -0.28739485


--------------------------------------------------------------------------------------------------------




----------------------------------------- Iteration    2(   2)  ---------------------------------------


    POTLOK:  cpu time    0.0390: real time    0.0271
    SETDIJ:  cpu time    0.0110: real time    0.0063
     EDDAV:  cpu time    1.5948: real time    0.9901
       DOS:  cpu time    0.0020: real time    0.0010
    CHARGE:  cpu time    0.0130: real time    0.0093
    MIXING:  cpu time    0.0010: real time    0.0007
    --------------------------------------------
      LOOP:  cpu time    1.6627: real time    1.0370

 eigenvalue-minimisations  :   624
 total energy-change (2. order) : 0.1968532E-01  (-0.3116184E-02)
 number of electron       7.9999999 magnetization 
 augmentation part       -0.5056052 magnetization 

 Broyden mixing:
  rms(total) = 0.53856E-01    rms(broyden)= 0.53855E-01
  rms(prec ) = 0.12502E+00
  weight for this iteration     100.00

 eigenvalues of (default mixing * dielectric matrix)
  average eigenvalue GAMMA=   1.9716
  1.9716

 Free energy of the ion-electron system (eV)
  ---------------------------------------------------
  alpha Z        PSCENC =        10.28116797
  Ewald energy   TEWEN  =      -355.49378567
  -Hartree energ DENC   =        -1.46674828
  -exchange      EXHF   =         0.00000000
  -V(xc)+E(xc)   XCENC  =       -11.89330940
  PAW double counting   =      5299.11291652    -5264.85101033
  entropy T*S    EENTRO =        -0.00267435
  eigenvalues    EBANDS =       117.91245761
  atomic energy  EATOM  =       206.13192747
  Solvation  Ediel_sol  =         0.00000000
  ---------------------------------------------------
  free energy    TOTEN  =        -0.26905845 eV

  energy without entropy =       -0.26638410  energy(sigma->0) =       -0.26772127


--------------------------------------------------------------------------------------------------------




----------------------------------------- Iteration    2(   3)  ---------------------------------------


    POTLOK:  cpu time    0.0300: real time    0.0168
    SETDIJ:  cpu time    0.0010: real time    0.0019
     EDDAV:  cpu time    1.3188: real time    0.8011
       DOS:  cpu time    0.0030: real time    0.0011
    CHARGE:  cpu time    0.0190: real time    0.0107
    MIXING:  cpu time    0.0020: real time    0.0007
    --------------------------------------------
      LOOP:  cpu time    1.3788: real time    0.8349

 eigenvalue-minimisations  :   800
 total energy-change (2. order) : 0.7903022E-02  (-0.1976787E-02)
 number of electron       7.9999999 magnetization 
 augmentation part       -0.5050795 magnetization 

 Broyden mixing:
  rms(total) = 0.42541E-02    rms(broyden)= 0.42534E-02
  rms(prec ) = 0.54033E-02
  weight for this iteration     100.00

 eigenvalues of (default mixing * dielectric matrix)
  average eigenvalue GAMMA=   1.5363
  1.0036  2.0691

 Free energy of the ion-electron system (eV)
  ---------------------------------------------------
  alpha Z        PSCENC =        10.28116797
  Ewald energy   TEWEN  =      -355.49378567
  -Hartree energ DENC   =        -1.48577278
  -exchange      EXHF   =         0.00000000
  -V(xc)+E(xc)   XCENC  =       -11.89026903
  PAW double counting   =      5312.60723920    -5278.35621154
  entropy T*S    EENTRO =        -0.00268026
  eigenvalues    EBANDS =       117.94722920
  atomic energy  EATOM  =       206.13192747
  Solvation  Ediel_sol  =         0.00000000
  ---------------------------------------------------
  free energy    TOTEN  =        -0.26115543 eV

  energy without entropy =       -0.25847517  energy(sigma->0) =       -0.25981530


--------------------------------------------------------------------------------------------------------




----------------------------------------- Iteration    2(   4)  ---------------------------------------


    POTLOK:  cpu time    0.0240: real time    0.0136
    SETDIJ:  cpu time    0.0040: real time    0.0027
     EDDAV:  cpu time    1.5638: real time    0.9489
       DOS:  cpu time    0.0020: real time    0.0009
    CHARGE:  cpu time    0.0310: real time    0.0187
    MIXING:  cpu time    0.0010: real time    0.0007
    --------------------------------------------
      LOOP:  cpu time    1.6288: real time    0.9878

 eigenvalue-minimisations  :   648
 total energy-change (2. order) :-0.3487169E-04  (-0.3422256E-04)
 number of electron       7.9999999 magnetization 
 augmentation part       -0.5050692 magnetization 

 Broyden mixing:
  rms(total) = 0.35877E-02    rms(broyden)= 0.35877E-02
  rms(prec ) = 0.43521E-02
  weight for this iteration     100.00

 eigenvalues of (default mixing * dielectric matrix)
  average eigenvalue GAMMA=   1.5351
  2.1222  1.2416  1.2416

 Free energy of the ion-electron system (eV)
  ---------------------------------------------------
  alpha Z        PSCENC =        10.28116797
  Ewald energy   TEWEN  =      -355.49378567
  -Hartree energ DENC   =        -1.48620161
  -exchange      EXHF   =         0.00000000
  -V(xc)+E(xc)   XCENC  =       -11.89011345
  PAW double counting   =      5319.32224035    -5285.07086229
  entropy T*S    EENTRO =        -0.00268047
  eigenvalues    EBANDS =       117.94711738
  atomic energy  EATOM  =       206.13192747
  Solvation  Ediel_sol  =         0.00000000
  ---------------------------------------------------
  free energy    TOTEN  =        -0.26119030 eV

  energy without entropy =       -0.25850984  energy(sigma->0) =       -0.25985007


--------------------------------------------------------------------------------------------------------




----------------------------------------- Iteration    2(   5)  ---------------------------------------


    POTLOK:  cpu time    0.0280: real time    0.0172
    SETDIJ:  cpu time    0.0040: real time    0.0023
     EDDAV:  cpu time    0.8029: real time    0.4861
       DOS:  cpu time    0.0010: real time    0.0010
    --------------------------------------------
      LOOP:  cpu time    0.8399: real time    0.5090

 eigenvalue-minimisations  :   552
 total energy-change (2. order) :-0.2053417E-05  (-0.4499401E-07)
 number of electron       7.9999999 magnetization 
 augmentation part       -0.5050692 magnetization 

 Free energy of the ion-electron system (eV)
  ---------------------------------------------------
  alpha Z        PSCENC =        10.28116797
  Ewald energy   TEWEN  =      -355.49378567
  -Hartree energ DENC   =        -1.48665500
  -exchange      EXHF   =         0.00000000
  -V(xc)+E(xc)   XCENC  =       -11.88997625
  PAW double counting   =      5324.94813387    -5290.69665988
  entropy T*S    EENTRO =        -0.00268059
  eigenvalues    EBANDS =       117.94733572
  atomic energy  EATOM  =       206.13192747
  Solvation  Ediel_sol  =         0.00000000
  ---------------------------------------------------
  free energy    TOTEN  =        -0.26119235 eV

  energy without entropy =       -0.25851176  energy(sigma->0) =       -0.25985206


--------------------------------------------------------------------------------------------------------




 average (electrostatic) potential at core
  the test charge radii are     0.9892
  (the norm of the test charge is              1.0000)
       1 -65.9461       2 -65.9461
 
 
 
 E-fermi :  23.6662     XC(G=0): -14.7290     alpha+bet :-36.6259


 k-point     1 :       0.0833    0.0833    0.0833
  band No.  band energies     occupation 
      1       1.7220      2.00000
      2      10.4909      2.00000
      3      14.3834      2.00000
      4      31.7277      0.00000
      5      33.7371      0.00000
      6      37.6347      0.00000
      7      39.5364      0.00000
      8      40.6148      0.00000

 k-point     2 :       0.2500    0.0833    0.0833
  band No.  band energies     occupation 
      1       4.7703      2.00000
      2      13.2520      2.00000
      3      16.7713      2.00000
      4      22.8120      2.00000
      5      28.1948      0.00000
      6      31.0964      0.00000
      7      34.9291      0.00000
      8      37.3477      0.00000

 k-point     3 :       0.4167    0.0833    0.0833
  band No.  band energies     occupation 
      1       9.9686      2.00000
      2      13.2970      2.00000
      3      18.5447      2.00000
      4      21.7177      2.00000
      5      22.1610      2.00000
      6      24.6769      0.00000
      7      31.6278      0.00000
      8      35.6953      0.00000

 k-point     4 :      -0.4167    0.0833    0.0833
  band No.  band energies     occupation 
      1       7.1350      2.00000
      2      15.1246      2.00000
      3      17.0637      2.00000
      4      20.5635      2.00000
      5      25.1691      0.00000
      6      27.4919      0.00000
      7      32.7505      0.00000
      8      36.2548      0.00000

 k-point     5 :      -0.2500    0.0833    0.0833
  band No.  band energies     occupation 
      1       2.9534      2.00000
      2      11.6080      2.00000
      3      15.4231      2.00000
      4      27.2329      0.00000
      5      30.7523      0.00000
      6      35.3930      0.00000
      7      37.5182      0.00000
      8      38.9891      0.00000

 k-point     6 :      -0.0833    0.0833    0.0833
  band No.  band energies     occupation 
      1       1.1001      2.00000
      2       9.9284      2.00000
      3      13.8405      2.00000
      4      34.7111      0.00000
      5      37.3514      0.00000
      6      37.7943      0.00000
      7      39.2025      0.00000
      8      42.2110      0.00000

 k-point     7 :       0.2500    0.2500    0.0833
  band No.  band energies     occupation 
      1       8.8638      2.00000
      2      16.4922      2.00000
      3      18.5200      2.00000
      4      18.7073      2.00000
      5      23.2730      2.00000
      6      27.7037      0.00000
      7      28.5219      0.00000
      8      32.7292      0.00000

 k-point     8 :       0.4167    0.2500    0.0833
  band No.  band energies     occupation 
      1      11.6305      2.00000
      2      14.8751      2.00000
      3      17.6512      2.00000
      4      20.5368      2.00000
      5      23.1472      2.00000
      6      24.8494      0.00000
      7      27.7246      0.00000
      8      31.1316      0.00000

 k-point     9 :      -0.4167    0.2500    0.0833
  band No.  band energies     occupation 
      1       6.5504      2.00000
      2      14.8260      2.00000
      3      17.7930      2.00000
      4      20.9984      2.00000
      5      24.7107      0.00000
      6      29.1954      0.00000
      7      32.4028      0.00000
      8      34.3005      0.00000

 k-point    10 :      -0.2500    0.2500    0.0833
  band No.  band energies     occupation 
      1       3.5631      2.00000
      2      12.1606      2.00000
      3      15.9007      2.00000
      4      24.9034      0.00000
      5      31.3624      0.00000
      6      33.9096      0.00000
      7      34.6384      0.00000
      8      38.8583      0.00000

 k-point    11 :       0.4167    0.4167    0.0833
  band No.  band energies     occupation 
      1      11.8059      2.00000
      2      12.6393      2.00000
      3      19.9828      2.00000
      4      20.5430      2.00000
      5      21.9770      2.00000
      6      24.0274      0.00000
      7      30.5375      0.00000
      8      31.4650      0.00000

 k-point    12 :      -0.4167    0.4167    0.0833
  band No.  band energies     occupation 
      1       8.2884      2.00000
      2      14.5741      2.00000
      3      17.1015      2.00000
      4      21.1523      2.00000
      5      23.4389      1.99869
      6      26.5447      0.00000
      7      32.9987      0.00000
      8      37.9174      0.00000

 k-point    13 :       0.0833    0.0833    0.2500
  band No.  band energies     occupation 
      1       2.3395      2.00000
      2       7.7224      2.00000
      3      18.1353      2.00000
      4      31.4404      0.00000
      5      33.2964      0.00000
      6      33.8898      0.00000
      7      38.0909      0.00000
      8      39.1918      0.00000

 k-point    14 :       0.2500    0.0833    0.2500
  band No.  band energies     occupation 
      1       5.3690      2.00000
      2      10.5766      2.00000
      3      20.0393      2.00000
      4      23.6164      1.51862
      5      26.7898      0.00000
      6      30.8423      0.00000
      7      34.2372      0.00000
      8      37.4463      0.00000

 k-point    15 :       0.4167    0.0833    0.2500
  band No.  band energies     occupation 
      1      10.5183      2.00000
      2      13.5454      2.00000
      3      16.3904      2.00000
      4      19.2853      2.00000
      5      25.0426      0.00000
      6      27.5449      0.00000
      7      32.7349      0.00000
      8      33.7793      0.00000

 k-point    16 :      -0.4167    0.0833    0.2500
  band No.  band energies     occupation 
      1       7.7177      2.00000
      2      12.7155      2.00000
      3      18.0632      2.00000
      4      22.8636      2.00000
      5      23.3111      2.00000
      6      29.1808      0.00000
      7      33.5015      0.00000
      8      35.0659      0.00000

 k-point    17 :      -0.2500    0.0833    0.2500
  band No.  band energies     occupation 
      1       3.5634      2.00000
      2       8.8780      2.00000
      3      19.0847      2.00000
      4      27.6887      0.00000
[...]

 k-point     2 :       0.2500    0.0833    0.0833
  band No.  band energies     occupation 
      1       4.6839      2.00000
      2      13.5125      2.00000
      3      17.1756      2.00000
      4      22.4965      2.00000
      5      27.9285      0.00000
      6      30.8207      0.00000
      7      34.6610      0.00000
      8      37.0545      0.00000

 k-point     3 :       0.4167    0.0833    0.0833
  band No.  band energies     occupation 
      1       9.7829      2.00000
      2      13.0574      2.00000
      3      18.6550      2.00000
      4      21.7475      2.00000
      5      22.4196      2.00000
      6      24.8777      0.00000
      7      31.2270      0.00000
      8      35.3307      0.00000

 k-point     4 :      -0.4167    0.0833    0.0833
  band No.  band energies     occupation 
      1       6.9999      2.00000
      2      15.2315      2.00000
      3      17.0068      2.00000
      4      20.7957      2.00000
      5      25.1102      0.00000
      6      27.3860      0.00000
      7      32.4368      0.00000
      8      35.8997      0.00000

 k-point     5 :      -0.2500    0.0833    0.0833
  band No.  band energies     occupation 
      1       2.9064      2.00000
      2      11.9183      2.00000
      3      15.9619      2.00000
      4      26.7596      0.00000
      5      30.2779      0.00000
      6      35.1224      0.00000
      7      37.2511      0.00000
      8      39.0002      0.00000

 k-point     6 :      -0.0833    0.0833    0.0833
  band No.  band energies     occupation 
      1       1.0946      2.00000
      2      10.2879      2.00000
      3      14.4500      2.00000
      4      34.3062      0.00000
      5      37.0071      0.00000
      6      37.8432      0.00000
      7      39.2083      0.00000
      8      41.5881      0.00000

 k-point     7 :       0.2500    0.2500    0.0833
  band No.  band energies     occupation 
      1       8.6953      2.00000
      2      16.5321      2.00000
      3      18.1998      2.00000
      4      18.7036      2.00000
      5      23.5537      2.00000
      6      27.5329      0.00000
      7      28.4021      0.00000
      8      32.9102      0.00000

 k-point     8 :       0.4167    0.2500    0.0833
  band No.  band energies     occupation 
      1      11.4167      2.00000
      2      14.6127      2.00000
      3      17.4058      2.00000
      4      20.5898      2.00000
      5      23.3300      2.00000
      6      25.0266      0.00000
      7      27.6485      0.00000
      8      31.3314      0.00000

 k-point     9 :      -0.4167    0.2500    0.0833
  band No.  band energies     occupation 
      1       6.4270      2.00000
      2      15.0296      2.00000
      3      17.9759      2.00000
      4      20.7647      2.00000
      5      24.5788      0.00000
      6      28.9988      0.00000
      7      32.1593      0.00000
      8      34.3606      0.00000

 k-point    10 :      -0.2500    0.2500    0.0833
  band No.  band energies     occupation 
      1       3.5027      2.00000
      2      12.4545      2.00000
      3      16.4028      2.00000
      4      24.4925      0.00000
      5      31.1829      0.00000
      6      33.6952      0.00000
      7      33.8191      0.00000
      8      39.8155      0.00000

 k-point    11 :       0.4167    0.4167    0.0833
  band No.  band energies     occupation 
      1      11.6104      2.00000
      2      12.3782      2.00000
      3      19.8653      2.00000
      4      20.6670      2.00000
      5      21.9083      2.00000
      6      24.4689      0.00000
      7      30.5369      0.00000
      8      31.2348      0.00000

 k-point    12 :      -0.4167    0.4167    0.0833
  band No.  band energies     occupation 
      1       8.1311      2.00000
      2      14.3877      2.00000
      3      17.2077      2.00000
      4      21.5323      2.00000
      5      23.4294      2.00000
      6      26.7132      0.00000
      7      32.1815      0.00000
      8      37.8715      0.00000

 k-point    13 :       0.0833    0.0833    0.2500
  band No.  band energies     occupation 
      1       2.3489      2.00000
      2       7.9696      2.00000
      3      18.8502      2.00000
      4      31.4529      0.00000
      5      33.3167      0.00000
      6      33.8411      0.00000
      7      37.5501      0.00000
      8      38.6576      0.00000

 k-point    14 :       0.2500    0.0833    0.2500
  band No.  band energies     occupation 
      1       5.3110      2.00000
      2      10.7476      2.00000
      3      20.3509      2.00000
      4      23.5160      2.00000
      5      26.5686      0.00000
      6      30.5853      0.00000
      7      34.0577      0.00000
      8      37.2932      0.00000

 k-point    15 :       0.4167    0.0833    0.2500
  band No.  band energies     occupation 
      1      10.3603      2.00000
      2      13.3741      2.00000
      3      16.3768      2.00000
      4      19.2427      2.00000
      5      25.1878      0.00000
      6      27.8410      0.00000
      7      32.4622      0.00000
      8      33.5512      0.00000

 k-point    16 :      -0.4167    0.0833    0.2500
  band No.  band energies     occupation 
      1       7.6103      2.00000
      2      12.8182      2.00000
      3      17.8200      2.00000
      4      22.7727      2.00000
      5      23.6867      1.99987
      6      29.0279      0.00000
      7      33.1868      0.00000
      8      34.9800      0.00000

 k-point    17 :      -0.2500    0.0833    0.2500
  band No.  band energies     occupation 
      1       3.5451      2.00000
      2       9.0945      2.00000
      3      19.7293      2.00000
      4      27.2679      0.00000
      5      30.1034      0.00000
      6      32.6588      0.00000
      7      35.1293      0.00000
      8      37.7214      0.00000

 k-point    18 :      -0.0833    0.0833    0.2500
  band No.  band energies     occupation 
      1       1.7451      2.00000
      2       7.4015      2.00000
      3      18.3699      2.00000
      4      32.9170      0.00000
      5      35.3617      0.00000
      6      37.4000      0.00000
      7      37.8532      0.00000
      8      40.5580      0.00000

 k-point    19 :       0.2500    0.2500    0.2500
  band No.  band energies     occupation 
      1       9.2922      2.00000
      2      14.3106      2.00000
      3      18.6944      2.00000
      4      19.6812      2.00000
      5      23.8321      1.92439
      6      25.8019      0.00000
      7      28.8126      0.00000
      8      36.1551      0.00000

 k-point    20 :       0.4167    0.2500    0.2500
  band No.  band energies     occupation 
      1      11.9783      2.00000
      2      14.9029      2.00000
      3      17.0157      2.00000
      4      18.9963      2.00000
      5      22.0225      2.00000
      6      24.6460      0.00000
      7      29.7771      0.00000
      8      34.0237      0.00000

 k-point    21 :      -0.4167    0.2500    0.2500
  band No.  band energies     occupation 
      1       7.0421      2.00000
      2      12.3466      2.00000
      3      19.9830      2.00000
      4      22.1355      2.00000
      5      24.4698      0.00000
      6      28.0326      0.00000
      7      30.4163      0.00000
      8      37.4317      0.00000

 k-point    22 :      -0.2500    0.2500    0.2500
  band No.  band energies     occupation 
      1       4.1376      2.00000
      2       9.6503      2.00000
      3      20.0392      2.00000
      4      25.1654      0.00000
      5      28.9850      0.00000
      6      33.7470      0.00000
      7      34.2748      0.00000
      8      38.3393      0.00000

 k-point    23 :       0.4167    0.4167    0.2500
  band No.  band energies     occupation 
      1      12.1493      2.00000
      2      12.8746      2.00000
      3      17.9969      2.00000
      4      18.0989      2.00000
      5      23.0351      2.00000
      6      27.0125      0.00000
      7      30.5228      0.00000
      8      32.6580      0.00000

 k-point    24 :      -0.4167    0.4167    0.2500
  band No.  band energies     occupation 
      1       8.7307      2.00000
      2      13.5320      2.00000
      3      16.1942      2.00000
      4      20.8455      2.00000
      5      24.8280      0.00000
      6      29.7180      0.00000
      7      32.6300      0.00000
      8      36.5894      0.00000

 k-point    25 :       0.0833    0.0833    0.4167
  band No.  band energies     occupation 
      1       3.6291      2.00000
      2       5.5173      2.00000
      3      23.3248      2.00000
      4      28.1789      0.00000
      5      32.6713      0.00000
      6      33.2947      0.00000
      7      36.6846      0.00000
      8      37.2536      0.00000

 k-point    26 :       0.2500    0.0833    0.4167
  band No.  band energies     occupation 
      1       6.5521      2.00000
      2       8.3802      2.00000
      3      22.7713      2.00000
      4      24.6534      0.00000
      5      26.1967      0.00000
      6      29.4894      0.00000
      7      33.0203      0.00000
      8      34.7548      0.00000

 k-point    27 :       0.4167    0.0833    0.4167
  band No.  band energies     occupation 
      1      11.4726      2.00000
      2      12.8904      2.00000
      3      15.7622      2.00000
      4      17.1327      2.00000
      5      27.6051      0.00000
      6      29.2743      0.00000
      7      33.3099      0.00000
      8      35.1608      0.00000

 k-point    28 :      -0.4167    0.0833    0.4167
  band No.  band energies     occupation 
      1       8.8156      2.00000
      2      10.5794      2.00000
      3      19.0022      2.00000
      4      20.6733      2.00000
      5      26.9944      0.00000
      6      29.4154      0.00000
      7      32.6354      0.00000
      8      35.1880      0.00000

 k-point    29 :      -0.2500    0.0833    0.4167
  band No.  band energies     occupation 
      1       4.8097      2.00000
      2       6.6743      2.00000
      3      23.9776      0.77877
      4      27.9196      0.00000
      5      28.6332      0.00000
      6      29.7652      0.00000
      7      34.3848      0.00000
      8      35.5394      0.00000

 k-point    30 :      -0.0833    0.0833    0.4167
  band No.  band energies     occupation 
      1       3.0333      2.00000
      2       4.9332      2.00000
      3      22.9065      2.00000
      4      27.8815      0.00000
      5      35.8663      0.00000
      6      36.8602      0.00000
      7      38.1723      0.00000
      8      39.2752      0.00000

 k-point    31 :       0.2500    0.2500    0.4167
  band No.  band energies     occupation 
      1      10.4677      2.00000
      2      12.1764      2.00000
      3      19.5565      2.00000
      4      20.1713      2.00000
      5      23.1854      2.00000
      6      24.0020      0.53061
      7      32.2336      0.00000
      8      36.7742      0.00000

 k-point    32 :       0.4167    0.2500    0.4167
  band No.  band energies     occupation 
      1      13.0534      2.00000
      2      14.4089      2.00000
      3      16.8844      2.00000
      4      17.9062      2.00000
      5      21.7770      2.00000
      6      22.9158      2.00000
      7      34.1033      0.00000
      8      37.8388      0.00000

 k-point    33 :      -0.4167    0.2500    0.4167
  band No.  band energies     occupation 
      1       8.2583      2.00000
      2      10.0452      2.00000
      3      21.3237      2.00000
      4      22.6315      2.00000
      5      24.9737      0.00000
      6      26.8139      0.00000
      7      31.3743      0.00000
      8      35.0635      0.00000

 k-point    34 :      -0.2500    0.2500    0.4167
  band No.  band energies     occupation 
      1       5.3944      2.00000
      2       7.2471      2.00000
      3      23.7807      1.98771
      4      26.3296      0.00000
      5      27.1794      0.00000
      6      30.2099      0.00000
      7      35.1920      0.00000
      8      36.5768      0.00000

 k-point    35 :       0.4167    0.4167    0.4167
  band No.  band energies     occupation 
      1      13.1060      2.00000
      2      13.5594      2.00000
      3      16.1201      2.00000
      4      16.4134      2.00000
      5      24.3882      0.00000
      6      26.0176      0.00000
      7      33.9368      0.00000
      8      36.0018      0.00000

 k-point    36 :      -0.4167    0.4167    0.4167
  band No.  band energies     occupation 
      1       9.9090      2.00000
      2      11.6028      2.00000
      3      17.0268      2.00000
      4      18.6652      2.00000
      5      28.5470      0.00000
      6      31.3043      0.00000
      7      33.5283      0.00000
      8      34.8687      0.00000


--------------------------------------------------------------------------------------------------------


 soft charge-density along one line, spin component           1
         0         1         2         3         4         5         6         7         8         9
 total charge-density along one line
 
 pseudopotential strength for first ion, spin component:           1
 16.499  23.005   0.000  -0.000  -0.000   0.000  -0.000  -0.000
 23.005  32.082   0.000  -0.000  -0.000   0.000  -0.000  -0.000
  0.000   0.000   3.933  -0.000  -0.000   7.311  -0.000  -0.000
 -0.000  -0.000  -0.000   3.931  -0.000  -0.000   7.308  -0.000
 -0.000  -0.000  -0.000  -0.000   3.933  -0.000  -0.000   7.311
  0.000   0.000   7.311  -0.000  -0.000  13.604  -0.000  -0.000
 -0.000  -0.000  -0.000   7.308  -0.000  -0.000  13.599  -0.000
 -0.000  -0.000  -0.000  -0.000   7.311  -0.000  -0.000  13.604
 total augmentation occupancy for first ion, spin component:           1
 18.853 -10.353  -0.000   0.000  -0.000   0.000   0.000   0.000
-10.353   5.946  -0.000   0.000   0.000  -0.000   0.000  -0.000
  0.000   0.000   7.867   0.000   0.000  -2.507   0.000   0.000
  0.000   0.000   0.000   7.629   0.000   0.000  -2.408   0.000
 -0.000   0.000   0.000  -0.000   7.867  -0.000   0.000  -2.507
  0.000  -0.000  -2.507   0.000   0.000   0.837  -0.000  -0.000
  0.000   0.000   0.000  -2.408  -0.000   0.000   0.803   0.000
  0.000  -0.000   0.000   0.000  -2.507   0.000   0.000   0.837


------------------------ aborting loop because EDIFF is reached ----------------------------------------


    CHARGE:  cpu time    0.0190: real time    0.0111
    FORLOC:  cpu time    0.0010: real time    0.0004
    FORNL :  cpu time    0.0320: real time    0.0218
    STRESS:  cpu time    0.2060: real time    0.1246
    FORCOR:  cpu time    0.0470: real time    0.0277
    FORHAR:  cpu time    0.0140: real time    0.0094
    MIXING:  cpu time    0.0010: real time    0.0008
    OFIELD:  cpu time    0.0000: real time    0.0000

  FORCE on cell =-STRESS in cart. coord.  units (eV):
  Direction    XX          YY          ZZ          XY          YZ          ZX
  --------------------------------------------------------------------------------------
  Alpha Z    10.28117    10.28117    10.28117
  Ewald    -117.33033  -117.33033  -120.98479    -0.00000     0.00000     0.00000
  Hartree     0.43296     0.43296     0.60516    -0.00000    -0.00000    -0.00000
  E(xc)     -33.23997   -33.23997   -33.12755    -0.00000     0.00000     0.00000
  Local      -4.66923    -4.66924    -1.92056    -0.00001    -0.00000    -0.00000
  n-local    89.24890   100.35368    92.71724    -3.80166     1.07690    -1.00558
  augment   -12.25493   -12.25492   -12.30772     0.00000    -0.00000     0.00000
  Kinetic   118.17451    69.94508    96.79587    14.31887    -0.21338    -1.63296
  Fock        0.00000     0.00000     0.00000     0.00000     0.00000     0.00000
  -------------------------------------------------------------------------------------
  Total      32.08076    32.08076    32.05881     0.00000     0.00000     0.00000
  in kB    3924.49022  3924.49022  3921.80470     0.00000     0.00000     0.00000
  external pressure =     3923.60 kB  Pullay stress =        0.00 kB


 VOLUME and BASIS-vectors are now :
 -----------------------------------------------------------------------------
  energy-cutoff  :      450.00
  volume of cell :       13.10
      direct lattice vectors                 reciprocal lattice vectors
     2.082627818 -0.000000000 -0.000000000     0.480162606  0.277222010 -0.000000000
    -1.041313909  1.803608597 -0.000000000     0.000000000  0.554444019  0.000000000
     0.000000000 -0.000000000  3.486728081     0.000000000  0.000000000  0.286801832

  length of vectors
     2.082627818  2.082627818  3.486728081     0.554444019  0.554444019  0.286801832


 FORCES acting on ions
    electron-ion (+dipol)            ewald-force                    non-local-force                 convergence-correction
 -----------------------------------------------------------------------------------------------
   -.552E-08 0.319E-08 -.158E-13   -.132E-12 0.121E-12 -.704E-14   0.281E-20 0.278E-16 0.000E+00   -.433E-08 0.250E-08 -.182E-15
   0.156E-07 -.899E-08 -.125E-12   0.133E-12 -.123E-12 0.704E-14   0.694E-17 -.243E-16 0.000E+00   0.434E-08 -.250E-08 -.224E-17
 -----------------------------------------------------------------------------------------------
   0.101E-07 -.581E-08 -.140E-12   0.695E-15 -.223E-14 -.523E-17   0.694E-17 0.347E-17 0.000E+00   0.860E-11 -.496E-11 -.184E-15
 
 
 POSITION                                       TOTAL-FORCE (eV/Angst)
 -----------------------------------------------------------------------------------
      0.00000     -0.00000      0.00000         0.000000      0.000000      0.000000
     -0.00000      1.20241      1.74336        -0.000000     -0.000000     -0.000000
 -----------------------------------------------------------------------------------
    total drift:                                0.000000     -0.000000     -0.000000


--------------------------------------------------------------------------------------------------------



  FREE ENERGIE OF THE ION-ELECTRON SYSTEM (eV)
  ---------------------------------------------------
  free  energy   TOTEN  =        -0.30206863 eV

  energy  without entropy=       -0.29893919  energy(sigma->0) =       -0.30050391
 
 d Force = 0.0000000E+00[ 0.000E+00, 0.000E+00]  d Energy = 0.4087627E-01-0.409E-01
 d Force = 0.0000000E+00[ 0.000E+00, 0.000E+00]  d Ewald  = 0.1515398E+00-0.152E+00


--------------------------------------------------------------------------------------------------------


    POTLOK:  cpu time    0.0370: real time    0.0298


--------------------------------------------------------------------------------------------------------




--------------------------------------------------------------------------------------------------------


  
 reached required accuracy - stopping structural energy minimisation
 writing wavefunctions
     LOOP+:  cpu time    8.4687: real time    5.3474
    4ORBIT:  cpu time    0.0000: real time    0.0000

 total amount of memory used by VASP on root node    32364. kBytes
========================================================================

   base      :      30000. kBytes
   nonl-proj :        691. kBytes
   fftplans  :        452. kBytes
   grid      :        856. kBytes
   one-center:          6. kBytes
   wavefun   :        359. kBytes
 
  
  
 General timing and accounting informations for this job:
 ========================================================
  
                  Total CPU time used (sec):       34.470
                            User time (sec):       31.631
                          System time (sec):        2.839
                         Elapsed time (sec):       23.188
  
                   Maximum memory used (kb):       32068.
                   Average memory used (kb):           0.
  
                          Minor page faults:        26470
                          Major page faults:            7
                 Voluntary context switches:          740
