Si beta-tin                             
   2.50000000000000     
     1.003946   -0.000000   -0.000000
    -0.501973    0.869443    0.000000
     0.000000    0.000000    1.620177
    S
     2
Direct
  0.000000  0.000000  0.000000
  0.333333  0.666667  0.500000
 
   36   36   56
 -3.9476     -3.6290     -2.7065     -1.2761     0.51440      2.4843      4.4457      6.2295      7.7081      8.8073    
  9.5088      9.8445      9.8850      9.7257      9.4716      9.2187      9.0155      8.8843      8.8389      8.8843    
  9.0155      9.2187      9.4716      9.7257      9.8850      9.8445      9.5088      8.8073      7.7081      6.2295    
  4.4457      2.4843     0.51440     -1.2761     -2.7065     -3.6290     -3.6290     -3.6290     -3.0070     -1.8280    
 -.21560      1.6643      3.6255      5.4885      7.1048      8.3742      9.2522      9.7474      9.9126      9.8324    
  9.6084      9.3435      9.1115      8.9417      8.8521      8.8521      8.9417      9.1115      9.3435      9.6084    
  9.8324      9.9126      9.7474      9.2522      8.3742      7.1048      5.4885      3.6255      1.6643     -.21560    
 -1.8280     -3.0070     -2.7065     -3.0102     -2.7065     -1.8280     -.46845      1.2287      3.0893      4.9337    
  6.6017      7.9733      8.9801      9.6072      9.8873      9.8901      9.7087      9.4448      9.1888      8.9841    
  8.8521      8.8066      8.8521      8.9841      9.1888      9.4448      9.7087      9.8901      9.8873      9.6072    
  8.9801      7.9733      6.6017      4.9337      3.0893      1.2287     -.46845     -1.8280     -1.2761     -1.8372    
 -1.8372     -1.2761     -.21560      1.2287      2.9029      4.6368      6.2682      7.6653      8.7409      9.4585    
  9.8304      9.9085      9.7738      9.5219      9.2481      9.0125      8.8409      8.7506      8.7506      8.8409    
  9.0125      9.2481      9.5219      9.7738      9.9085      9.8304      9.4585      8.7409      7.6653      6.2682    
  4.6368      2.9029      1.2287     -.21560     0.51440     -.23231     -.49108     -.23231     0.51441      1.6643    
  3.0893      4.6368      6.1515      7.4981      8.5775      9.3359      9.7660      9.9021      9.8101      9.5757    
  9.2913      9.0295      8.8217      8.6885      8.6426      8.6885      8.8217      9.0295      9.2913      9.5757    
  9.8101      9.9021      9.7660      9.3359      8.5775      7.4981      6.1515      4.6368      3.0893      1.6643    
  2.4843      1.6397      1.1906      1.1906      1.6397      2.4843      3.6255      4.9337      6.2682      7.4981    
  8.5196      9.2669      9.7169      9.8866      9.8264      9.6096      9.3210      9.0380      8.7986      8.6255    
  8.5347      8.5347      8.6255      8.7986      9.0380      9.3210      9.6096      9.8264      9.8866      9.7169    
  9.2669      8.5196      7.4981      6.2682      4.9337      3.6255      4.4457      3.5938      3.0363      2.8423    
  3.0363      3.5938      4.4457      5.4885      6.6017      7.6653      8.5775      9.2669      9.6986      9.8751    
  9.8317      9.6283      9.3397      9.0411      8.7755      8.5669      8.4339      8.3882      8.4339      8.5669    
  8.7755      9.0411      9.3397      9.6283      9.8317      9.8751      9.6986      9.2669      8.5775      7.6653    
  6.6017      5.4885      6.2295      5.4513      4.8679      4.5554      4.5554      4.8679      5.4513      6.2295    
  7.1048      7.9733      8.7409      9.3359      9.7169      9.8751      9.8327      9.6364      9.3497      9.0416    
  8.7562      8.5180      8.3470      8.2578      8.2578      8.3470      8.5180      8.7562      9.0416      9.3497    
  9.6364      9.8327      9.8751      9.7169      9.3359      8.7409      7.9733      7.1048      7.7081      7.0639    
  6.5266      6.1703      6.0456      6.1703      6.5266      7.0639      7.7081      8.3742      8.9801      9.4585    
  9.7660      9.8866      9.8317      9.6364      9.3529      9.0413      8.7434      8.4828      8.2801      8.1516    
  8.1076      8.1516      8.2801      8.4828      8.7434      9.0413      9.3529      9.6364      9.8317      9.8866    
  9.7660      9.4585      8.9801      8.3742      8.8073      8.3315      7.8925      7.5559      7.3733      7.3733    
  7.5558      7.8925      8.3315      8.8073      9.2522      9.6072      9.8304      9.9021      9.8264      9.6283    
  9.3497      9.0413      8.7389      8.4644      8.2380      8.0766      7.9927      7.9927      8.0766      8.2380    
  8.4644      8.7389      9.0413      9.3497      9.6283      9.8264      9.9021      9.8304      9.6072      9.2522    
  9.5088      9.2090      8.8968      8.6247      8.4398      8.3743      8.4398      8.6247      8.8967      9.2090    
  9.5088      9.7474      9.8873      9.9085      9.8101      9.6096      9.3397      9.0416      8.7434      8.4644    
  8.2236      8.0378      7.9206      7.8805      7.9206      8.0378      8.2236      8.4644      8.7434      9.0416    
  9.3397      9.6096      9.8101      9.9085      9.8873      9.7474      9.8445      9.7045      9.5235      9.3395    
  9.1906      9.1076      9.1076      9.1906      9.3395      9.5235      9.7045      9.8445      9.9126      9.8901    
  9.7738      9.5757      9.3210      9.0411      8.7562      8.4828      8.2380      8.0378      7.8960      7.8224    
  7.8224      7.8960      8.0378      8.2380      8.4828      8.7562      9.0411      9.3210      9.5757      9.7738    
  9.8901      9.9126      9.8850      9.8705      9.8045      9.7109      9.6172      9.5490      9.5242      9.5490    
  9.6172      9.7109      9.8045      9.8705      9.8850      9.8324      9.7087      9.5219      9.2913      9.0380    
  8.7755      8.5180      8.2801      8.0766      7.9206      7.8224      7.7889      7.8224      7.9206      8.0766    
  8.2801      8.5180      8.7755      9.0380      9.2913      9.5219      9.7087      9.8324      9.7257      9.7912    
  9.8086      9.7898      9.7522      9.7139      9.6904      9.6904      9.7139      9.7522      9.7898      9.8086    
  9.7912      9.7257      9.6084      9.4448      9.2481      9.0295      8.7986      8.5669      8.3470      8.1516    
  7.9927      7.8805      7.8224      7.8224      7.8805      7.9927      8.1516      8.3470      8.5669      8.7986    
  9.0295      9.2481      9.4448      9.6084      9.4716      9.5677      9.6283      9.6562      9.6601      9.6510    
  9.6401      9.6355      9.6401      9.6510      9.6601      9.6562      9.6283      9.5677      9.4716      9.3435    
  9.1888      9.0125      8.8217      8.6255      8.4339      8.2578      8.1076      7.9927      7.9206      7.8960    
  7.9206      7.9927      8.1076      8.2578      8.4339      8.6255      8.8217      9.0125      9.1888      9.3435    
  9.2187      9.3033      9.3651      9.4052      9.4259      9.4326      9.4319      9.4298      9.4298      9.4319    
  9.4326      9.4259      9.4052      9.3651      9.3033      9.2187      9.1115      8.9841      8.8409      8.6885    
  8.5347      8.3882      8.2578      8.1516      8.0766      8.0378      8.0378      8.0766      8.1516      8.2578    
  8.3882      8.5347      8.6885      8.8409      8.9841      9.1115      9.0155      9.0714      9.1096      9.1319    
  9.1415      9.1427      9.1397      9.1359      9.1344      9.1359      9.1397      9.1427      9.1415      9.1319    
  9.1096      9.0714      9.0155      8.9417      8.8521      8.7506      8.6426      8.5347      8.4339      8.3470    
  8.2801      8.2380      8.2236      8.2380      8.2801      8.3470      8.4339      8.5347      8.6426      8.7506    
  8.8521      8.9417      8.8843      8.9017      8.9050      8.8964      8.8795      8.8586      8.8381      8.8220    
  8.8132      8.8132      8.8220      8.8381      8.8585      8.8794      8.8964      8.9050      8.9017      8.8843    
  8.8521      8.8066      8.7506      8.6885      8.6255      8.5669      8.5180      8.4828      8.4644      8.4644    
  8.4828      8.5180      8.5669      8.6255      8.6885      8.7506      8.8066      8.8521      8.8389      8.8121    
  8.7730      8.7246      8.6713      8.6180      8.5701      8.5320      8.5076      8.4992      8.5076      8.5320    
  8.5701      8.6180      8.6713      8.7246      8.7730      8.8121      8.8390      8.8521      8.8521      8.8409    
  8.8217      8.7986      8.7755      8.7562      8.7434      8.7389      8.7434      8.7562      8.7755      8.7986    
  8.8217      8.8409      8.8521      8.8521      8.8843      8.8121      8.7275      8.6342      8.5377      8.4440    
  8.3596      8.2903      8.2411      8.2156      8.2156      8.2411      8.2903      8.3596      8.4440      8.5377    
  8.6342      8.7275      8.8121      8.8843      8.9417      8.9841      9.0125      9.0295      9.0380      9.0411    
  9.0416      9.0413      9.0413      9.0416      9.0411      9.0380      9.0295      9.0125      8.9841      8.9417    
  9.0155      8.9017      8.7730      8.6342      8.4917      8.3527      8.2253      8.1169      8.0342      7.9824    
  7.9648      7.9824      8.0342      8.1169      8.2253      8.3527      8.4917      8.6342      8.7730      8.9017    
  9.0155      9.1115      9.1888      9.2481      9.2913      9.3210      9.3397      9.3497      9.3529      9.3497    
  9.3397      9.3210      9.2913      9.2481      9.1888      9.1115      9.2187      9.0714      8.9050      8.7246    
  8.5377      8.3527      8.1792      8.0264      7.9032      7.8166      7.7720      7.7720      7.8166      7.9032    
  8.0264      8.1792      8.3527      8.5377      8.7246      8.9050      9.0714      9.2187      9.3435      9.4448    
  9.5219      9.5757      9.6096      9.6283      9.6364      9.6364      9.6283      9.6096      9.5757      9.5219    
  9.4448      9.3435      9.4716      9.3033      9.1096      8.8964      8.6713      8.4440      8.2253      8.0264    
  7.8583      7.7305      7.6506      7.6234      7.6506      7.7305      7.8583      8.0264      8.2253      8.4440    
  8.6713      8.8964      9.1096      9.3033      9.4716      9.6084      9.7087      9.7738      9.8101      9.8264    
  9.8317      9.8327      9.8317      9.8264      9.8101      9.7738      9.7087      9.6084      9.7257      9.5677    
  9.3651      9.1319      8.8795      8.6180      8.3596      8.1169      7.9032      7.7305      7.6091      7.5464    
  7.5464      7.6091      7.7305      7.9032      8.1169      8.3596      8.6180      8.8794      9.1319      9.3651    
  9.5677      9.7257      9.8324      9.8901      9.9085      9.9021      9.8866      9.8751      9.8751      9.8866    
  9.9021      9.9085      9.8901      9.8324      9.8850      9.7912      9.6283      9.4052      9.1415      8.8586    
  8.5701      8.2903      8.0342      7.8166      7.6506      7.5464      7.5110      7.5464      7.6506      7.8166    
  8.0342      8.2903      8.5701      8.8585      9.1415      9.4052      9.6283      9.7912      9.8850      9.9126    
  9.8873      9.8304      9.7660      9.7169      9.6986      9.7169      9.7660      9.8304      9.8873      9.9126    
  9.8445      9.8705      9.8086      9.6562      9.4259      9.1427      8.8381      8.5320      8.2411      7.9824    
  7.7720      7.6234      7.5464      7.5464      7.6234      7.7720      7.9824      8.2411      8.5320      8.8381    
  9.1427      9.4259      9.6562      9.8086      9.8705      9.8445      9.7474      9.6072      9.4585      9.3359    
  9.2669      9.2669      9.3359      9.4585      9.6072      9.7474      9.5088      9.7045      9.8045      9.7898    
  9.6601      9.4326      9.1397      8.8220      8.5076      8.2156      7.9648      7.7720      7.6506      7.6091    
  7.6506      7.7720      7.9648      8.2156      8.5076      8.8220      9.1397      9.4326      9.6601      9.7898    
  9.8045      9.7045      9.5088      9.2522      8.9801      8.7409      8.5775      8.5196      8.5775      8.7409    
  8.9801      9.2522      8.8073      9.2090      9.5235      9.7109      9.7522      9.6510      9.4319      9.1359    
  8.8132      8.4992      8.2156      7.9824      7.8166      7.7305      7.7305      7.8166      7.9824      8.2156    
  8.4992      8.8132      9.1359      9.4319      9.6510      9.7522      9.7109      9.5235      9.2090      8.8073    
  8.3742      7.9733      7.6653      7.4981      7.4981      7.6653      7.9733      8.3742      7.7081      8.3315    
  8.8968      9.3395      9.6172      9.7139      9.6401      9.4298      9.1344      8.8132      8.5076      8.2411    
  8.0342      7.9032      7.8583      7.9032      8.0342      8.2411      8.5076      8.8132      9.1344      9.4298    
  9.6401      9.7139      9.6172      9.3395      8.8967      8.3315      7.7081      7.1048      6.6017      6.2682    
  6.1515      6.2682      6.6017      7.1048      6.2295      7.0639      7.8925      8.6247      9.1906      9.5490    
  9.6904      9.6355      9.4298      9.1359      8.8220      8.5320      8.2903      8.1169      8.0264      8.0264    
  8.1169      8.2903      8.5320      8.8220      9.1359      9.4298      9.6355      9.6904      9.5490      9.1906    
  8.6247      7.8925      7.0639      6.2295      5.4885      4.9337      4.6368      4.6368      4.9337      5.4885    
  4.4457      5.4513      6.5266      7.5559      8.4398      9.1076      9.5242      9.6904      9.6401      9.4319    
  9.1397      8.8381      8.5701      8.3596      8.2253      8.1792      8.2253      8.3596      8.5701      8.8381    
  9.1397      9.4319      9.6401      9.6904      9.5242      9.1076      8.4398      7.5558      6.5266      5.4513    
  4.4457      3.6255      3.0893      2.9029      3.0893      3.6255      2.4843      3.5938      4.8679      6.1703    
  7.3733      8.3743      9.1076      9.5490      9.7139      9.6510      9.4326      9.1427      8.8586      8.6180    
  8.4440      8.3527      8.3527      8.4440      8.6180      8.8586      9.1427      9.4326      9.6510      9.7139    
  9.5490      9.1076      8.3743      7.3733      6.1703      4.8679      3.5938      2.4843      1.6643      1.2287    
  1.2287      1.6643     0.51440      1.6397      3.0363      4.5554      6.0456      7.3733      8.4398      9.1906    
  9.6172      9.7522      9.6601      9.4259      9.1415      8.8795      8.6713      8.5377      8.4917      8.5377    
  8.6713      8.8795      9.1415      9.4259      9.6601      9.7522      9.6172      9.1906      8.4398      7.3733    
  6.0456      4.5554      3.0363      1.6397     0.51441     -.21560     -.46845     -.21560     -1.2761     -.23231    
  1.1906      2.8423      4.5554      6.1703      7.5559      8.6247      9.3395      9.7109      9.7898      9.6562    
  9.4052      9.1319      8.8964      8.7246      8.6342      8.6342      8.7246      8.8964      9.1319      9.4052    
  9.6562      9.7898      9.7109      9.3395      8.6247      7.5559      6.1703      4.5554      2.8423      1.1906    
 -.23231     -1.2761     -1.8280     -1.8280     -2.7065     -1.8372     -.49108      1.1906      3.0363      4.8679    
  6.5266      7.8925      8.8968      9.5235      9.8045      9.8086      9.6283      9.3651      9.1096      8.9050    
  8.7730      8.7275      8.7730      8.9050      9.1096      9.3651      9.6283      9.8086      9.8045      9.5235    
  8.8968      7.8925      6.5266      4.8679      3.0363      1.1906     -.49108     -1.8372     -2.7065     -3.0070    
 -3.6290     -3.0102     -1.8372     -.23231      1.6397      3.5938      5.4513      7.0639      8.3315      9.2090    
  9.7045      9.8705      9.7912      9.5677      9.3033      9.0714      8.9017      8.8121      8.8121      8.9017    
  9.0714      9.3033      9.5677      9.7912      9.8705      9.7045      9.2090      8.3315      7.0639      5.4513    
  3.5938      1.6397     -.23231     -1.8372     -3.0102     -3.6290     -3.5904     -3.2786     -2.3756     -.97614    
 0.77435      2.6985      4.6119      6.3493      7.7859      8.8494      9.5226      9.8374      9.8638      9.6963    
  9.4385      9.1844      8.9805      8.8490      8.8036      8.8490      8.9805      9.1844      9.4385      9.6963    
  9.8638      9.8374      9.5226      8.8494      7.7859      6.3493      4.6119      2.6985     0.77435     -.97614    
 -2.3756     -3.2786     -3.2786     -3.2786     -2.6698     -1.5165     0.59889E-01  1.8964      3.8104      5.6260    
  7.1981      8.4289      9.2752      9.7461      9.8943      9.8034      9.5737      9.3069      9.0741      8.9038    
  8.8141      8.8141      8.9038      9.0741      9.3069      9.5737      9.8034      9.8943      9.7461      9.2752    
  8.4289      7.1981      5.6260      3.8104      1.8964     0.59888E-01 -1.5165     -2.6698     -2.3756     -2.6726    
 -2.3756     -1.5165     -.18764      1.4701      3.2861      5.0840      6.7072      8.0386      9.0115      9.6118    
  9.8723      9.8621      9.6732      9.4060      9.1492      8.9439      8.8117      8.7661      8.8117      8.9439    
  9.1492      9.4060      9.6732      9.8621      9.8723      9.6118      9.0115      8.0386      6.7072      5.0840    
  3.2861      1.4701     -.18765     -1.5165     -.97614     -1.5245     -1.5245     -.97614     0.59891E-01  1.4701    
  3.1037      4.7937      6.3816      7.7384      8.7790      9.4683      9.8186      9.8819      9.7381      9.4817    
  9.2066      8.9704      8.7984      8.7080      8.7080      8.7984      8.9704      9.2066      9.4817      9.7381    
  9.8819      9.8186      9.4683      8.7790      7.7384      6.3816      4.7937      3.1037      1.4701     0.59888E-01
 0.77435     0.45446E-01 -.20720     0.45447E-01 0.77436      1.8964      3.2861      4.7937      6.2676      7.5753    
  8.6200      9.3494      9.7570      9.8769      9.7744      9.5345      9.2482      8.9857      8.7777      8.6443    
  8.5984      8.6443      8.7777      8.9857      9.2482      9.5345      9.7744      9.8769      9.7570      9.3494    
  8.6200      7.5753      6.2676      4.7937      3.2861      1.8964      2.6985      1.8751      1.4372      1.4372    
  1.8751      2.6985      3.8104      5.0840      6.3816      7.5753      8.5635      9.2823      9.7096      9.8625    
  9.7909      9.5677      9.2766      8.9929      8.7532      8.5800      8.4892      8.4892      8.5800      8.7532    
  8.9929      9.2766      9.5677      9.7909      9.8625      9.7096      9.2823      8.5635      7.5753      6.3816    
  5.0840      3.8104      4.6119      3.7829      3.2401      3.0511      3.2401      3.7829      4.6119      5.6260    
  6.7072      7.7384      8.6200      9.2823      9.6919      9.8516      9.7965      9.5862      9.2945      8.9951    
  8.7292      8.5205      8.3875      8.3419      8.3875      8.5205      8.7292      8.9951      9.2945      9.5862    
  9.7965      9.8516      9.6919      9.2823      8.6200      7.7384      6.7072      5.6260      6.3493      5.5937    
  5.0269      4.7232      4.7232      5.0269      5.5937      6.3493      7.1981      8.0386      8.7790      9.3494    
  9.7096      9.8516      9.7976      9.5941      9.3040      8.9949      8.7092      8.4710      8.3001      8.2109    
  8.2109      8.3001      8.4710      8.7092      8.9949      9.3040      9.5941      9.7976      9.8516      9.7096    
  9.3494      8.7790      8.0386      7.1981      7.7859      7.1626      6.6421      6.2967      6.1757      6.2967    
  6.6421      7.1626      7.7859      8.4289      9.0115      9.4683      9.7570      9.8625      9.7965      9.5941    
  9.3069      8.9942      8.6960      8.4354      8.2329      8.1045      8.0605      8.1045      8.2329      8.4354    
  8.6960      8.9942      9.3069      9.5941      9.7965      9.8625      9.7570      9.4683      9.0115      8.4289    
  8.8494      8.3918      7.9686      7.6435      7.4670      7.4670      7.6435      7.9686      8.3918      8.8494    
  9.2752      9.6118      9.8186      9.8769      9.7909      9.5862      9.3040      8.9942      8.6914      8.4169    
  8.1906      8.0294      7.9456      7.9456      8.0294      8.1906      8.4169      8.6914      8.9942      9.3040    
  9.5862      9.7909      9.8769      9.8186      9.6118      9.2752      9.5226      9.2378      8.9394      8.6784    
  8.5006      8.4376      8.5006      8.6784      8.9394      9.2378      9.5226      9.7462      9.8723      9.8819    
  9.7744      9.5677      9.2945      8.9949      8.6960      8.4169      8.1761      7.9906      7.8735      7.8335    
  7.8735      7.9906      8.1761      8.4169      8.6960      8.9949      9.2945      9.5677      9.7744      9.8819    
  9.8723      9.7461      9.8374      9.7092      9.5395      9.3654      9.2238      9.1446      9.1446      9.2238    
  9.3654      9.5395      9.7092      9.8374      9.8943      9.8621      9.7381      9.5345      9.2766      8.9951    
  8.7092      8.4354      8.1906      7.9906      7.8490      7.7756      7.7756      7.8490      7.9906      8.1906    
  8.4354      8.7092      8.9951      9.2766      9.5345      9.7381      9.8621      9.8943      9.8638      9.8581    
  9.8010      9.7156      9.6285      9.5647      9.5413      9.5647      9.6286      9.7156      9.8010      9.8581    
  9.8638      9.8034      9.6732      9.4817      9.2482      8.9929      8.7292      8.4710      8.2329      8.0294    
  7.8735      7.7756      7.7421      7.7756      7.8735      8.0294      8.2329      8.4710      8.7292      8.9929    
  9.2482      9.4817      9.6732      9.8034      9.6963      9.7679      9.7920      9.7797      9.7477      9.7136    
  9.6924      9.6924      9.7136      9.7477      9.7797      9.7920      9.7679      9.6963      9.5737      9.4060    
  9.2066      8.9857      8.7532      8.5205      8.3001      8.1045      7.9456      7.8335      7.7756      7.7756    
  7.8335      7.9456      8.1045      8.3001      8.5205      8.7532      8.9857      9.2066      9.4060      9.5737    
  9.4385      9.5388      9.6041      9.6370      9.6454      9.6401      9.6316      9.6278      9.6316      9.6401    
  9.6454      9.6370      9.6041      9.5388      9.4385      9.3069      9.1492      8.9704      8.7777      8.5800    
  8.3875      8.2109      8.0605      7.9456      7.8735      7.8490      7.8735      7.9456      8.0605      8.2109    
  8.3875      8.5800      8.7777      8.9704      9.1492      9.3069      9.1844      9.2724      9.3378      9.3815    
  9.4058      9.4156      9.4173      9.4164      9.4164      9.4173      9.4156      9.4058      9.3815      9.3377    
  9.2724      9.1844      9.0741      8.9439      8.7984      8.6443      8.4892      8.3419      8.2109      8.1045    
  8.0294      7.9906      7.9906      8.0294      8.1045      8.2109      8.3419      8.4892      8.6443      8.7984    
  8.9439      9.0741      8.9805      9.0397      9.0813      9.1068      9.1196      9.1235      9.1226      9.1202    
  9.1191      9.1202      9.1226      9.1235      9.1196      9.1068      9.0813      9.0397      8.9805      8.9038    
  8.8117      8.7080      8.5984      8.4892      8.3875      8.3001      8.2329      8.1906      8.1761      8.1906    
  8.2329      8.3001      8.3875      8.4892      8.5984      8.7080      8.8117      8.9038      8.8490      8.8695    
  8.8761      8.8707      8.8570      8.8388      8.8207      8.8062      8.7982      8.7982      8.8062      8.8207    
  8.8388      8.8570      8.8707      8.8761      8.8695      8.8490      8.8141      8.7661      8.7080      8.6443    
  8.5800      8.5205      8.4710      8.4354      8.4169      8.4169      8.4354      8.4710      8.5205      8.5800    
  8.6443      8.7080      8.7661      8.8141      8.8036      8.7798      8.7439      8.6987      8.6485      8.5982    
  8.5526      8.5165      8.4933      8.4853      8.4933      8.5165      8.5526      8.5982      8.6485      8.6987    
  8.7439      8.7798      8.8036      8.8141      8.8117      8.7984      8.7777      8.7532      8.7292      8.7092    
  8.6960      8.6914      8.6960      8.7092      8.7292      8.7532      8.7777      8.7984      8.8117      8.8141    
  8.8490      8.7798      8.6982      8.6082      8.5148      8.4241      8.3423      8.2752      8.2275      8.2028    
  8.2028      8.2275      8.2752      8.3423      8.4241      8.5148      8.6082      8.6982      8.7798      8.8490    
  8.9038      8.9439      8.9704      8.9857      8.9929      8.9951      8.9949      8.9942      8.9942      8.9949    
  8.9951      8.9929      8.9857      8.9704      8.9439      8.9038      8.9805      8.8695      8.7439      8.6082    
  8.4688      8.3329      8.2082      8.1021      8.0212      7.9706      7.9533      7.9706      8.0212      8.1021    
  8.2082      8.3329      8.4688      8.6082      8.7439      8.8695      8.9805      9.0741      9.1492      9.2066    
  9.2482      9.2766      9.2945      9.3040      9.3069      9.3040      9.2945      9.2766      9.2482      9.2066    
  9.1492      9.0741      9.1844      9.0397      8.8761      8.6987      8.5148      8.3329      8.1621      8.0118    
  7.8906      7.8055      7.7616      7.7616      7.8055      7.8906      8.0118      8.1621      8.3329      8.5148    
  8.6987      8.8761      9.0397      9.1844      9.3069      9.4060      9.4817      9.5345      9.5677      9.5862    
  9.5941      9.5941      9.5862      9.5677      9.5345      9.4817      9.4060      9.3069      9.4385      9.2724    
  9.0813      8.8707      8.6485      8.4241      8.2082      8.0118      7.8459      7.7197      7.6408      7.6140    
  7.6408      7.7197      7.8459      8.0118      8.2082      8.4241      8.6485      8.8707      9.0813      9.2724    
  9.4385      9.5737      9.6732      9.7381      9.7744      9.7909      9.7965      9.7976      9.7965      9.7909    
  9.7744      9.7381      9.6732      9.5737      9.6963      9.5388      9.3378      9.1068      8.8570      8.5982    
  8.3423      8.1021      7.8906      7.7197      7.5996      7.5376      7.5376      7.5996      7.7197      7.8906    
  8.1021      8.3423      8.5982      8.8570      9.1068      9.3377      9.5388      9.6963      9.8034      9.8621    
  9.8819      9.8769      9.8625      9.8516      9.8516      9.8625      9.8769      9.8819      9.8621      9.8034    
  9.8638      9.7679      9.6041      9.3815      9.1196      8.8388      8.5526      8.2752      8.0212      7.8055    
  7.6408      7.5376      7.5024      7.5376      7.6408      7.8055      8.0212      8.2752      8.5526      8.8388    
  9.1196      9.3815      9.6041      9.7679      9.8638      9.8943      9.8723      9.8186      9.7570      9.7096    
  9.6919      9.7096      9.7570      9.8186      9.8723      9.8943      9.8374      9.8581      9.7920      9.6370    
  9.4058      9.1235      8.8207      8.5165      8.2275      7.9706      7.7616      7.6140      7.5376      7.5376    
  7.6140      7.7616      7.9706      8.2275      8.5165      8.8207      9.1235      9.4058      9.6370      9.7920    
  9.8581      9.8374      9.7462      9.6118      9.4683      9.3494      9.2823      9.2823      9.3494      9.4683    
  9.6118      9.7461      9.5226      9.7092      9.8010      9.7797      9.6454      9.4156      9.1226      8.8062    
  8.4933      8.2028      7.9533      7.7616      7.6408      7.5996      7.6408      7.7616      7.9533      8.2028    
  8.4933      8.8062      9.1226      9.4156      9.6454      9.7797      9.8010      9.7092      9.5226      9.2752    
  9.0115      8.7790      8.6200      8.5635      8.6200      8.7790      9.0115      9.2752      8.8494      9.2378    
  9.5395      9.7156      9.7477      9.6401      9.4173      9.1202      8.7982      8.4853      8.2028      7.9706    
  7.8055      7.7197      7.7197      7.8055      7.9706      8.2028      8.4853      8.7982      9.1202      9.4173    
  9.6401      9.7477      9.7156      9.5395      9.2378      8.8494      8.4289      8.0386      7.7384      7.5753    
  7.5753      7.7384      8.0386      8.4289      7.7859      8.3918      8.9394      9.3654      9.6286      9.7136    
  9.6316      9.4164      9.1191      8.7982      8.4933      8.2275      8.0212      7.8906      7.8459      7.8906    
  8.0212      8.2275      8.4933      8.7982      9.1191      9.4164      9.6316      9.7136      9.6286      9.3654    
  8.9394      8.3918      7.7859      7.1981      6.7072      6.3816      6.2676      6.3816      6.7072      7.1981    
  6.3493      7.1626      7.9686      8.6784      9.2238      9.5647      9.6924      9.6278      9.4164      9.1202    
  8.8062      8.5165      8.2752      8.1021      8.0118      8.0118      8.1021      8.2752      8.5165      8.8062    
  9.1202      9.4164      9.6278      9.6924      9.5647      9.2238      8.6784      7.9686      7.1626      6.3493    
  5.6260      5.0840      4.7937      4.7937      5.0840      5.6260      4.6119      5.5937      6.6421      7.6435    
  8.5006      9.1446      9.5413      9.6924      9.6316      9.4173      9.1226      8.8207      8.5526      8.3423    
  8.2082      8.1621      8.2082      8.3423      8.5526      8.8207      9.1226      9.4173      9.6316      9.6924    
  9.5413      9.1446      8.5006      7.6435      6.6421      5.5937      4.6119      3.8104      3.2861      3.1037    
  3.2861      3.8104      2.6985      3.7829      5.0269      6.2967      7.4670      8.4376      9.1446      9.5647    
  9.7136      9.6401      9.4156      9.1235      8.8388      8.5982      8.4241      8.3329      8.3329      8.4241    
  8.5982      8.8388      9.1235      9.4156      9.6401      9.7136      9.5647      9.1446      8.4376      7.4670    
  6.2967      5.0269      3.7829      2.6985      1.8964      1.4701      1.4701      1.8964     0.77435      1.8751    