Si beta-tin                             
   2.50000000000000     
     1.002321   -0.000000   -0.000000
    -0.501161    0.868036    0.000000
     0.000000    0.000000    1.625435
    S
     2
Direct
 -0.000000  0.000000  0.000000
  0.333333  0.666667  0.500000
 
   36   36   56
 -.39468401758E+01 -.36268656895E+01 -.27005412526E+01 -.12650747940E+01 0.53003880460E+00
 0.25025220373E+01 0.44630669266E+01 0.62422862412E+01 0.77126092715E+01 0.88007069700E+01
 0.94895903046E+01 0.98124393841E+01 0.98411766730E+01 0.96722532838E+01 0.94113448684E+01
 0.91539569535E+01 0.89474619064E+01 0.88142531052E+01 0.87682719778E+01 0.88142531063E+01
 0.89474619099E+01 0.91539569608E+01 0.94113448798E+01 0.96722532975E+01 0.98411766852E+01
 0.98124393901E+01 0.94895903006E+01 0.88007069549E+01 0.77126092479E+01 0.62422862145E+01
 0.44630669032E+01 0.25025220224E+01 0.53003879988E+00 -.12650747905E+01 -.27005412456E+01
 -.36268656843E+01 -.36268656843E+01 -.36268657241E+01 -.30023234743E+01 -.18193176222E+01
 -.20252062807E+00 0.16804216973E+01 0.36419880877E+01 0.55017185789E+01 0.71110340224E+01
 0.83703956508E+01 0.92362239711E+01 0.97184228712E+01 0.98712649082E+01 0.97804313327E+01
 0.95482039732E+01 0.92779998132E+01 0.90421763798E+01 0.88697488635E+01 0.87788637309E+01
 0.87788637738E+01 0.88697489790E+01 0.90421765332E+01 0.92779999597E+01 0.95482040736E+01
 0.97804313654E+01 0.98712648761E+01 0.97184227991E+01 0.92362238968E+01 0.83703956125E+01
 0.71110340471E+01 0.55017186756E+01 0.36419882462E+01 0.16804218925E+01 -.20252042913E+00
 -.18193174524E+01 -.30023233608E+01 -.27005412456E+01 -.30052381407E+01 -.27005413790E+01
 -.18193177023E+01 -.45634097190E+00 0.12434836172E+01 0.31047367460E+01 0.49466184573E+01
 0.66086342045E+01 0.79710642075E+01 0.89663333660E+01 0.95806864682E+01 0.98481535533E+01
 0.98395734893E+01 0.96489237263E+01 0.93785443212E+01 0.91183689078E+01 0.89104451502E+01
 0.87765785962E+01 0.87304111695E+01 0.87765787110E+01 0.89104453395E+01 0.91183691057E+01
 0.93785444607E+01 0.96489237635E+01 0.98395734187E+01 0.98481534095E+01 0.95806863131E+01
 0.89663332677E+01 0.79710642188E+01 0.66086343479E+01 0.49466187207E+01 0.31047370890E+01
 0.12434839838E+01 -.45634063927E+00 -.18193174524E+01 -.12650747905E+01 -.18275200693E+01
 -.18275201505E+01 -.12650750242E+01 -.20252078525E+00 0.12434835545E+01 0.29178549438E+01
 0.46493475267E+01 0.62753450273E+01 0.76638967430E+01 0.87284962033E+01 0.94337486905E+01
 0.97928504459E+01 0.98592249008E+01 0.97146157202E+01 0.94553308645E+01 0.91767286662E+01
 0.89375592447E+01 0.87634886533E+01 0.86719534799E+01 0.86719535261E+01 0.87634887712E+01
 0.89375593803E+01 0.91767287538E+01 0.94553308526E+01 0.97146155928E+01 0.98592246853E+01
 0.97928502049E+01 0.94337485021E+01 0.87284961362E+01 0.76638968363E+01 0.62753452807E+01
 0.46493479033E+01 0.29178553819E+01 0.12434839838E+01 -.20252042913E+00 0.53003879988E+00
 -.21743493424E+00 -.47654389790E+00 -.21743508691E+00 0.53003851893E+00 0.16804215289E+01
 0.31047367030E+01 0.46493475601E+01 0.61586464204E+01 0.74970586348E+01 0.85658588062E+01
 0.93121252847E+01 0.97296998665E+01 0.98538016663E+01 0.97513872589E+01 0.95089701500E+01
 0.92191725385E+01 0.89534691886E+01 0.87428605577E+01 0.86078693708E+01 0.85614060688E+01
 0.86078693988E+01 0.87428605902E+01 0.89534691883E+01 0.92191724699E+01 0.95089699951E+01
 0.97513870275E+01 0.98538013964E+01 0.97296996152E+01 0.93121251126E+01 0.85658587611E+01
 0.74970587383E+01 0.61586466629E+01 0.46493479033E+01 0.31047370890E+01 0.16804218925E+01
 0.25025220224E+01 0.16584947099E+01 0.12095505954E+01 0.12095505389E+01 0.16584945563E+01
 0.25025218150E+01 0.36419880417E+01 0.49466185718E+01 0.62753452219E+01 0.74970587780E+01
 0.85081193477E+01 0.92435851691E+01 0.96811937294E+01 0.98389643969E+01 0.97681036732E+01
 0.95428106235E+01 0.92482840677E+01 0.89611724273E+01 0.87186182346E+01 0.85433336440E+01
 0.84514960433E+01 0.84514960319E+01 0.85433336107E+01 0.87186181813E+01 0.89611723544E+01
 0.92482839726E+01 0.95428105012E+01 0.97681035204E+01 0.98389642174E+01 0.96811935388E+01
 0.92435849953E+01 0.85081192253E+01 0.74970587383E+01 0.62753452807E+01 0.49466187207E+01
 0.36419882462E+01 0.44630669032E+01 0.36137778285E+01 0.30574882515E+01 0.28638786553E+01
 0.30574882242E+01 0.36137778072E+01 0.44630669377E+01 0.55017188058E+01 0.66086345812E+01
 0.76638971393E+01 0.85658590695E+01 0.92435852386E+01 0.96631318835E+01 0.98278264466E+01
 0.97737212996E+01 0.95615878559E+01 0.92666460922E+01 0.89637334670E+01 0.86947711390E+01
 0.84837224568E+01 0.83492078238E+01 0.83030246570E+01 0.83492077759E+01 0.84837223906E+01
 0.86947710983E+01 0.89637334853E+01 0.92666461731E+01 0.95615879662E+01 0.97737213808E+01
 0.98278264394E+01 0.96631317541E+01 0.92435849953E+01 0.85658587611E+01 0.76638968363E+01
 0.66086343479E+01 0.55017186756E+01 0.62422862145E+01 0.54686700452E+01 0.48881999457E+01
 0.45771269202E+01 0.45771269614E+01 0.48882000810E+01 0.54686702997E+01 0.62422866028E+01
 0.71110345484E+01 0.79710647657E+01 0.87284966258E+01 0.93121254383E+01 0.96811936290E+01
 0.98278262870E+01 0.97747950910E+01 0.95696810626E+01 0.92764843589E+01 0.89638164356E+01
 0.86749082123E+01 0.84340409190E+01 0.82613187974E+01 0.81711891035E+01 0.81711890690E+01
 0.82613187226E+01 0.84340408750E+01 0.86749082771E+01 0.89638166523E+01 0.92764847083E+01
 0.95696814624E+01 0.97747954228E+01 0.98278264394E+01 0.96811935388E+01 0.93121251126E+01
 0.87284961362E+01 0.79710642188E+01 0.71110340471E+01 0.77126092479E+01 0.70748826882E+01
 0.65421798359E+01 0.61886517007E+01 0.60648345778E+01 0.61886519034E+01 0.65421802278E+01
 0.70748832346E+01 0.77126098844E+01 0.83703962432E+01 0.89663337796E+01 0.94337487914E+01
 0.97296996198E+01 0.98389639417E+01 0.97737209004E+01 0.95696809032E+01 0.92795426983E+01
 0.89633539599E+01 0.86618193938E+01 0.83984432290E+01 0.81938022425E+01 0.80641013881E+01
 0.80196837798E+01 0.80641013065E+01 0.81938021416E+01 0.83984432050E+01 0.86618195335E+01
 0.89633542988E+01 0.92795431991E+01 0.95696814624E+01 0.97737213808E+01 0.98389642174E+01
 0.97296996152E+01 0.94337485021E+01 0.89663332677E+01 0.83703956125E+01 0.88007069549E+01
 0.83327659085E+01 0.78998745695E+01 0.75673352646E+01 0.73868072776E+01 0.73868074193E+01
 0.75673356580E+01 0.78998751269E+01 0.83327665067E+01 0.88007074632E+01 0.92362242073E+01
 0.95806863650E+01 0.97928499974E+01 0.98538009865E+01 0.97681030066E+01 0.95615874623E+01
 0.92764843140E+01 0.89633540747E+01 0.86572578760E+01 0.83798806999E+01 0.81513164366E+01
 0.79885729858E+01 0.79039696778E+01 0.79039696245E+01 0.79885728495E+01 0.81513162808E+01
 0.83798806072E+01 0.86572579211E+01 0.89633542988E+01 0.92764847083E+01 0.95615879662E+01
 0.97681035204E+01 0.98538013964E+01 0.97928502049E+01 0.95806863131E+01 0.92362238968E+01
 0.94895903006E+01 0.91983557458E+01 0.88932119655E+01 0.86264337204E+01 0.84447076101E+01
 0.83802933768E+01 0.84447078603E+01 0.86264341223E+01 0.88932123597E+01 0.91983559720E+01
 0.94895902568E+01 0.97184224764E+01 0.98481528910E+01 0.98592241116E+01 0.97513865446E+01
 0.95428102120E+01 0.92666461108E+01 0.89638167821E+01 0.86618197783E+01 0.83798808815E+01
 0.81368170919E+01 0.79495202175E+01 0.78313869893E+01 0.77910208710E+01 0.78313869065E+01
 0.79495200519E+01 0.81368168541E+01 0.83798806072E+01 0.86618195335E+01 0.89638166523E+01
 0.92666461731E+01 0.95428105012E+01 0.97513870275E+01 0.98592246853E+01 0.98481534095E+01
 0.97184227991E+01 0.98124393901E+01 0.96810672129E+01 0.95075765299E+01 0.93295866734E+01
 0.91848916200E+01 0.91040234995E+01 0.91040235592E+01 0.91848917476E+01 0.93295867404E+01
 0.95075763955E+01 0.96810667979E+01 0.98124387255E+01 0.98712641031E+01 0.98395727396E+01
 0.97146151933E+01 0.95089699733E+01 0.92482843039E+01 0.89637340390E+01 0.86749088737E+01
 0.83984436893E+01 0.81513165751E+01 0.79495201700E+01 0.78066506144E+01 0.77326080824E+01
 0.77326080881E+01 0.78066505981E+01 0.79495200519E+01 0.81513162808E+01 0.83984432050E+01
 0.86749082771E+01 0.89637334853E+01 0.92482839726E+01 0.95089699951E+01 0.97146155928E+01
 0.98395734187E+01 0.98712648761E+01 0.98411766852E+01 0.98347251125E+01 0.97760863780E+01
 0.96887405859E+01 0.95998659807E+01 0.95346306529E+01 0.95107586938E+01 0.95346305355E+01
 0.95998657048E+01 0.96887401038E+01 0.97760856853E+01 0.98347242855E+01 0.98411758812E+01
 0.97804307804E+01 0.96489235619E+01 0.94553310998E+01 0.92191730981E+01 0.89611731810E+01
 0.86947718911E+01 0.84340414385E+01 0.81938023866E+01 0.79885728179E+01 0.78313867387E+01
 0.77326079496E+01 0.76989131556E+01 0.77326080881E+01 0.78313869065E+01 0.79885728495E+01
 0.81938021416E+01 0.84340408750E+01 0.86947710983E+01 0.89611723544E+01 0.92191724699E+01
 0.94553308526E+01 0.96489237635E+01 0.97804313654E+01 0.96722532975E+01 0.97446892921E+01
 0.97688399749E+01 0.97561643119E+01 0.97234096056E+01 0.96886389733E+01 0.96669647748E+01
 0.96669646109E+01 0.96886385061E+01 0.97234089084E+01 0.97561635032E+01 0.97688392062E+01
 0.97446887233E+01 0.96722530604E+01 0.95482042336E+01 0.93785449897E+01 0.91767295282E+01
 0.89534700176E+01 0.87186188624E+01 0.84837227712E+01 0.82613187500E+01 0.80641010446E+01
 0.79039692286E+01 0.77910205305E+01 0.77326079496E+01 0.77326080824E+01 0.77910208710E+01
 0.79039696245E+01 0.80641013065E+01 0.82613187226E+01 0.84837223906E+01 0.87186181813E+01
 0.89534691883E+01 0.91767287538E+01 0.93785444607E+01 0.95482040736E+01 0.94113448798E+01
 0.95130687006E+01 0.95793450648E+01 0.96127636591E+01 0.96212941633E+01 0.96158474221E+01
 0.96072664352E+01 0.96034455866E+01 0.96072660388E+01 0.96158467598E+01 0.96212934526E+01
 0.96127631327E+01 0.95793448964E+01 0.95130689525E+01 0.94113454894E+01 0.92780007656E+01
 0.91183699027E+01 0.89375599813E+01 0.87428608756E+01 0.85433335515E+01 0.83492074291E+01
 0.81711885509E+01 0.80196832305E+01 0.79039692286E+01 0.78313867387E+01 0.78066506144E+01
 0.78313869893E+01 0.79039696778E+01 0.80196837798E+01 0.81711890690E+01 0.83492077759E+01
 0.85433336107E+01 0.87428605902E+01 0.89375593803E+01 0.91183691057E+01 0.92779999597E+01
 0.91539569608E+01 0.92432341410E+01 0.93097379528E+01 0.93543844203E+01 0.93792642272E+01
 0.93894123356E+01 0.93912347762E+01 0.93904685164E+01 0.93904683632E+01 0.93912343993E+01
 0.93894119464E+01 0.93792640722E+01 0.93543846713E+01 0.93097386281E+01 0.92432350916E+01
 0.91539579257E+01 0.90421772393E+01 0.89104456023E+01 0.87634885550E+01 0.86078688143E+01
 0.84514952778E+01 0.83030239358E+01 0.81711885509E+01 0.80641010446E+01 0.79885728179E+01
 0.79495201700E+01 0.79495202175E+01 0.79885729858E+01 0.80641013881E+01 0.81711891035E+01
 0.83030246570E+01 0.84514960319E+01 0.86078693988E+01 0.87634887712E+01 0.89104453395E+01
 0.90421765332E+01 0.89474619099E+01 0.90075812861E+01 0.90499496655E+01 0.90762449680E+01
 0.90895852142E+01 0.90939307477E+01 0.90932850234E+01 0.90911326011E+01 0.90900898469E+01
 0.90911325713E+01 0.90932850683E+01 0.90939310147E+01 0.90895858018E+01 0.90762458499E+01
 0.90499506702E+01 0.90075821467E+01 0.89474623648E+01 0.88697488789E+01 0.87765780843E+01
 0.86719525710E+01 0.85614050752E+01 0.84514952778E+01 0.83492074291E+01 0.82613187500E+01
 0.81938023866E+01 0.81513165751E+01 0.81368170919E+01 0.81513164366E+01 0.81938022425E+01
 0.82613187974E+01 0.83492078238E+01 0.84514960433E+01 0.85614060688E+01 0.86719535261E+01
 0.87765787110E+01 0.88697489790E+01 0.88142531063E+01 0.88352020260E+01 0.88421410097E+01
 0.88371718222E+01 0.88236894480E+01 0.88058303380E+01 0.87878455317E+01 0.87735014952E+01
 0.87655896266E+01 0.87655897477E+01 0.87735018591E+01 0.87878461278E+01 0.88058311169E+01
 0.88236902982E+01 0.88371725729E+01 0.88421414685E+01 0.88352020425E+01 0.88142526372E+01
 0.87788629169E+01 0.87304101471E+01 0.86719525710E+01 0.86078688143E+01 0.85433335515E+01
 0.84837227712E+01 0.84340414385E+01 0.83984436893E+01 0.83798808815E+01 0.83798806999E+01
 0.83984432290E+01 0.84340409190E+01 0.84837224568E+01 0.85433336440E+01 0.86078693708E+01
 0.86719534799E+01 0.87304111695E+01 0.87788637738E+01 0.87682719778E+01 0.87443183319E+01
 0.87082649055E+01 0.86630090882E+01 0.86127194618E+01 0.85622921152E+01 0.85167316452E+01
 0.84805622160E+01 0.84573466360E+01 0.84493497935E+01 0.84573470262E+01 0.84805628871E+01
 0.85167324085E+01 0.85622927529E+01 0.86127197867E+01 0.86630089937E+01 0.87082643949E+01
 0.87443175180E+01 0.87682710531E+01 0.87788629169E+01 0.87765780843E+01 0.87634885550E+01
 0.87428608756E+01 0.87186188624E+01 0.86947718911E+01 0.86749088737E+01 0.86618197783E+01
 0.86572578760E+01 0.86618193938E+01 0.86749082123E+01 0.86947711390E+01 0.87186182346E+01
 0.87428605577E+01 0.87634886533E+01 0.87765785962E+01 0.87788637309E+01 0.88142531052E+01
 0.87443183745E+01 0.86620797454E+01 0.85713732810E+01 0.84774005774E+01 0.83861943183E+01
 0.83039828297E+01 0.82365584778E+01 0.81887340610E+01 0.81639344390E+01 0.81639346201E+01
 0.81887345194E+01 0.82365589940E+01 0.83039831390E+01 0.83861942196E+01 0.84774000148E+01
 0.85713723676E+01 0.86620787211E+01 0.87443175180E+01 0.88142526372E+01 0.88697488789E+01
 0.89104456023E+01 0.89375599813E+01 0.89534700176E+01 0.89611731810E+01 0.89637340390E+01
 0.89638167821E+01 0.89633540747E+01 0.89633539599E+01 0.89638164356E+01 0.89637334670E+01
 0.89611724273E+01 0.89534691886E+01 0.89375592447E+01 0.89104451502E+01 0.88697488635E+01
 0.89474619064E+01 0.88352021393E+01 0.87082650225E+01 0.85713733295E+01 0.84308073656E+01
 0.82938943185E+01 0.81683640200E+01 0.80616631757E+01 0.79803122211E+01 0.79293669992E+01
 0.79120215042E+01 0.79293671322E+01 0.79803123547E+01 0.80616631138E+01 0.81683636087E+01
 0.82938935371E+01 0.84308063596E+01 0.85713723676E+01 0.87082643949E+01 0.88352020425E+01
 0.89474623648E+01 0.90421772393E+01 0.91183699027E+01 0.91767295282E+01 0.92191730981E+01
 0.92482843039E+01 0.92666461108E+01 0.92764843140E+01 0.92795426983E+01 0.92764843589E+01
 0.92666460922E+01 0.92482840677E+01 0.92191725385E+01 0.91767286662E+01 0.91183689078E+01
 0.90421763798E+01 0.91539569535E+01 0.90075814327E+01 0.88421412017E+01 0.86630092128E+01
 0.84774006096E+01 0.82938943074E+01 0.81217968558E+01 0.79704164931E+01 0.78483182833E+01
 0.77626288938E+01 0.77184530141E+01 0.77184529631E+01 0.77626287159E+01 0.78483179244E+01
 0.79704159217E+01 0.81217961155E+01 0.82938935371E+01 0.84774000148E+01 0.86630089937E+01
 0.88421414685E+01 0.90075821467E+01 0.91539579257E+01 0.92780007656E+01 0.93785449897E+01
 0.94553310998E+01 0.95089699733E+01 0.95428102120E+01 0.95615874623E+01 0.95696809032E+01
 0.95696810626E+01 0.95615878559E+01 0.95428106235E+01 0.95089701500E+01 0.94553308645E+01
 0.93785443212E+01 0.92779998132E+01 0.94113448684E+01 0.92432342740E+01 0.90499498641E+01
 0.88371719679E+01 0.86127195037E+01 0.83861942872E+01 0.81683639686E+01 0.79704164552E+01
 0.78031314104E+01 0.76760299405E+01 0.75965810180E+01 0.75695517514E+01 0.75965807611E+01
 0.76760294799E+01 0.78031308464E+01 0.79704159217E+01 0.81683636087E+01 0.83861942196E+01
 0.86127197867E+01 0.88371725729E+01 0.90499506702E+01 0.92432350916E+01 0.94113454894E+01
 0.95482042336E+01 0.96489235619E+01 0.97146151933E+01 0.97513865446E+01 0.97681030066E+01
 0.97737209004E+01 0.97747950910E+01 0.97737212996E+01 0.97681036732E+01 0.97513872589E+01
 0.97146157202E+01 0.96489237263E+01 0.95482039732E+01 0.96722532838E+01 0.95130687811E+01
 0.93097380894E+01 0.90762450674E+01 0.88236894630E+01 0.85622920691E+01 0.83039827599E+01
 0.80616630921E+01 0.78483181951E+01 0.76760298851E+01 0.75549732552E+01 0.74925117341E+01
 0.74925115986E+01 0.75549729076E+01 0.76760294799E+01 0.78483179244E+01 0.80616631138E+01
 0.83039831390E+01 0.85622927529E+01 0.88236902982E+01 0.90762458499E+01 0.93097386281E+01
 0.95130689525E+01 0.96722530604E+01 0.97804307804E+01 0.98395727396E+01 0.98592241116E+01
 0.98538009865E+01 0.98389639417E+01 0.98278262870E+01 0.98278264466E+01 0.98389643969E+01
 0.98538016663E+01 0.98592249008E+01 0.98395734893E+01 0.97804313327E+01 0.98411766730E+01
 0.97446893032E+01 0.95793450954E+01 0.93543844198E+01 0.90895851658E+01 0.88058302799E+01
 0.85167316055E+01 0.82365584240E+01 0.79803121086E+01 0.77626287511E+01 0.75965809344E+01
 0.74925117410E+01 0.74570593441E+01 0.74925115986E+01 0.75965807611E+01 0.77626287159E+01
 0.79803123547E+01 0.82365589940E+01 0.85167324085E+01 0.88058311169E+01 0.90895858018E+01
 0.93543846713E+01 0.95793448964E+01 0.97446887233E+01 0.98411758812E+01 0.98712641031E+01
 0.98481528910E+01 0.97928499974E+01 0.97296996198E+01 0.96811936290E+01 0.96631318835E+01
 0.96811937294E+01 0.97296998665E+01 0.97928504459E+01 0.98481535533E+01 0.98712649082E+01
 0.98124393841E+01 0.98347250642E+01 0.97688398961E+01 0.96127635402E+01 0.93792640940E+01
 0.90939306742E+01 0.87878455589E+01 0.84805622745E+01 0.81887340234E+01 0.79293668325E+01
 0.77184528450E+01 0.75695517373E+01 0.74925117410E+01 0.74925117341E+01 0.75695517514E+01
 0.77184529631E+01 0.79293671322E+01 0.81887345194E+01 0.84805628871E+01 0.87878461278E+01
 0.90939310147E+01 0.93792640722E+01 0.96127631327E+01 0.97688392062E+01 0.98347242855E+01
 0.98124387255E+01 0.97184224764E+01 0.95806863650E+01 0.94337487914E+01 0.93121254383E+01
 0.92435852386E+01 0.92435851691E+01 0.93121252847E+01 0.94337486905E+01 0.95806864682E+01
 0.97184228712E+01 0.94895903046E+01 0.96810671376E+01 0.97760862278E+01 0.97561640995E+01
 0.96212939494E+01 0.93894122370E+01 0.90932851205E+01 0.87735017122E+01 0.84573467634E+01
 0.81639343317E+01 0.79120212582E+01 0.77184528450E+01 0.75965809344E+01 0.75549732552E+01
 0.75965810180E+01 0.77184530141E+01 0.79120215042E+01 0.81639346201E+01 0.84573470262E+01
 0.87735018591E+01 0.90932850683E+01 0.93894119464E+01 0.96212934526E+01 0.97561635032E+01
 0.97760856853E+01 0.96810667979E+01 0.94895902568E+01 0.92362242073E+01 0.89663337796E+01
 0.87284966258E+01 0.85658590695E+01 0.85081193477E+01 0.85658588062E+01 0.87284962033E+01
 0.89663333660E+01 0.92362239711E+01 0.88007069700E+01 0.91983556856E+01 0.95075763734E+01
 0.96887403411E+01 0.97234093422E+01 0.96158472871E+01 0.93912349050E+01 0.90911329575E+01
 0.87655899574E+01 0.84493498223E+01 0.81639343317E+01 0.79293668325E+01 0.77626287511E+01
 0.76760298851E+01 0.76760299405E+01 0.77626288938E+01 0.79293669992E+01 0.81639344390E+01
 0.84493497935E+01 0.87655897477E+01 0.90911325713E+01 0.93912343993E+01 0.96158467598E+01
 0.97234089084E+01 0.96887401038E+01 0.95075763955E+01 0.91983559720E+01 0.88007074632E+01
 0.83703962432E+01 0.79710647657E+01 0.76638971393E+01 0.74970587780E+01 0.74970586348E+01
 0.76638967430E+01 0.79710642075E+01 0.83703956508E+01 0.77126092715E+01 0.83327659007E+01
 0.88932118720E+01 0.93295864737E+01 0.95998657200E+01 0.96886387976E+01 0.96072665300E+01
 0.93904689270E+01 0.90900903457E+01 0.87655899574E+01 0.84573467634E+01 0.81887340234E+01
 0.79803121086E+01 0.78483181951E+01 0.78031314104E+01 0.78483182833E+01 0.79803122211E+01
 0.81887340610E+01 0.84573466360E+01 0.87655896266E+01 0.90900898469E+01 0.93904683632E+01
 0.96072660388E+01 0.96886385061E+01 0.95998657048E+01 0.93295867404E+01 0.88932123597E+01
 0.83327665067E+01 0.77126098844E+01 0.71110345484E+01 0.66086345812E+01 0.62753452219E+01
 0.61586464204E+01 0.62753450273E+01 0.66086342045E+01 0.71110340224E+01 0.62422862412E+01
 0.70748827531E+01 0.78998745906E+01 0.86264336357E+01 0.91848914219E+01 0.95346304471E+01
 0.96669647696E+01 0.96034459286E+01 0.93904689270E+01 0.90911329575E+01 0.87735017122E+01
 0.84805622745E+01 0.82365584240E+01 0.80616630921E+01 0.79704164552E+01 0.79704164931E+01
 0.80616631757E+01 0.82365584778E+01 0.84805622160E+01 0.87735014952E+01 0.90911326011E+01
 0.93904685164E+01 0.96034455866E+01 0.96669646109E+01 0.95346305355E+01 0.91848917476E+01
 0.86264341223E+01 0.78998751269E+01 0.70748832346E+01 0.62422866028E+01 0.55017188058E+01
 0.49466185718E+01 0.46493475601E+01 0.46493475267E+01 0.49466184573E+01 0.55017185789E+01
 0.44630669266E+01 0.54686701817E+01 0.65421799904E+01 0.75673353364E+01 0.84447075261E+01
 0.91040232928E+01 0.95107585523E+01 0.96669647696E+01 0.96072665300E+01 0.93912349050E+01
 0.90932851205E+01 0.87878455589E+01 0.85167316055E+01 0.83039827599E+01 0.81683639686E+01
 0.81217968558E+01 0.81683640200E+01 0.83039828297E+01 0.85167316452E+01 0.87878455317E+01
 0.90932850234E+01 0.93912347762E+01 0.96072664352E+01 0.96669647748E+01 0.95107586938E+01
 0.91040235592E+01 0.84447078603E+01 0.75673356580E+01 0.65421802278E+01 0.54686702997E+01
 0.44630669377E+01 0.36419880417E+01 0.31047367030E+01 0.29178549438E+01 0.31047367460E+01
 0.36419880877E+01 0.25025220373E+01 0.36137780165E+01 0.48882002172E+01 0.61886519317E+01
 0.73868073373E+01 0.83802932113E+01 0.91040232928E+01 0.95346304471E+01 0.96886387976E+01
 0.96158472871E+01 0.93894122370E+01 0.90939306742E+01 0.88058302799E+01 0.85622920691E+01
 0.83861942872E+01 0.82938943074E+01 0.82938943185E+01 0.83861943183E+01 0.85622921152E+01
 0.88058303380E+01 0.90939307477E+01 0.93894123356E+01 0.96158474221E+01 0.96886389733E+01
 0.95346306529E+01 0.91040234995E+01 0.83802933768E+01 0.73868074193E+01 0.61886519034E+01
 0.48882000810E+01 0.36137778072E+01 0.25025218150E+01 0.16804215289E+01 0.12434835545E+01
 0.12434836172E+01 0.16804216973E+01 0.53003880460E+00 0.16584949183E+01 0.30574885963E+01
 0.45771272764E+01 0.60648347806E+01 0.73868073373E+01 0.84447075261E+01 0.91848914219E+01
 0.95998657200E+01 0.97234093422E+01 0.96212939494E+01 0.93792640940E+01 0.90895851658E+01
 0.88236894630E+01 0.86127195037E+01 0.84774006096E+01 0.84308073656E+01 0.84774005774E+01
 0.86127194618E+01 0.88236894480E+01 0.90895852142E+01 0.93792642272E+01 0.96212941633E+01
 0.97234096056E+01 0.95998659807E+01 0.91848916200E+01 0.84447076101E+01 0.73868072776E+01
 0.60648345778E+01 0.45771269614E+01 0.30574882242E+01 0.16584945563E+01 0.53003851893E+00
 -.20252078525E+00 -.45634097190E+00 -.20252062807E+00 -.12650747940E+01 -.21743473780E+00
 0.12095509567E+01 0.28638790769E+01 0.45771272764E+01 0.61886519317E+01 0.75673353364E+01
 0.86264336357E+01 0.93295864737E+01 0.96887403411E+01 0.97561640995E+01 0.96127635402E+01
 0.93543844198E+01 0.90762450674E+01 0.88371719679E+01 0.86630092128E+01 0.85713733295E+01
 0.85713732810E+01 0.86630090882E+01 0.88371718222E+01 0.90762449680E+01 0.93543844203E+01
 0.96127636591E+01 0.97561643119E+01 0.96887405859E+01 0.93295866734E+01 0.86264337204E+01
 0.75673352646E+01 0.61886517007E+01 0.45771269202E+01 0.28638786553E+01 0.12095505389E+01
 -.21743508691E+00 -.12650750242E+01 -.18193177023E+01 -.18193176222E+01 -.27005412526E+01
 -.18275199116E+01 -.47654357567E+00 0.12095509567E+01 0.30574885963E+01 0.48882002172E+01
 0.65421799904E+01 0.78998745906E+01 0.88932118720E+01 0.95075763734E+01 0.97760862278E+01
 0.97688398961E+01 0.95793450954E+01 0.93097380894E+01 0.90499498641E+01 0.88421412017E+01
 0.87082650225E+01 0.86620797454E+01 0.87082649055E+01 0.88421410097E+01 0.90499496655E+01
 0.93097379528E+01 0.95793450648E+01 0.97688399749E+01 0.97760863780E+01 0.95075765299E+01
 0.88932119655E+01 0.78998745695E+01 0.65421798359E+01 0.48881999457E+01 0.30574882515E+01
 0.12095505954E+01 -.47654389790E+00 -.18275201505E+01 -.27005413790E+01 -.30023234743E+01
 -.36268656895E+01 -.30052380397E+01 -.18275199116E+01 -.21743473780E+00 0.16584949183E+01
 0.36137780165E+01 0.54686701817E+01 0.70748827531E+01 0.83327659007E+01 0.91983556856E+01
 0.96810671376E+01 0.98347250642E+01 0.97446893032E+01 0.95130687811E+01 0.92432342740E+01
 0.90075814327E+01 0.88352021393E+01 0.87443183745E+01 0.87443183319E+01 0.88352020260E+01
 0.90075812861E+01 0.92432341410E+01 0.95130687006E+01 0.97446892921E+01 0.98347251125E+01
 0.96810672129E+01 0.91983557458E+01 0.83327659085E+01 0.70748826882E+01 0.54686700452E+01
 0.36137778285E+01 0.16584947099E+01 -.21743493424E+00 -.18275200693E+01 -.30052381407E+01
 -.36268657241E+01 -.35929105522E+01 -.32795417773E+01 -.23725720853E+01 -.96779222850E+00
 0.78769283523E+00 0.27148230360E+01 0.46279480945E+01 0.63612271817E+01 0.77900008990E+01
 0.88428962060E+01 0.95038657849E+01 0.98061551838E+01 0.98210980168E+01 0.96441224987E+01
 0.93796345734E+01 0.91211535711E+01 0.89140598382E+01 0.87805488383E+01 0.87344760708E+01
 0.87805488382E+01 0.89140598395E+01 0.91211535757E+01 0.93796345822E+01 0.96441225102E+01
 0.98210980277E+01 0.98061551893E+01 0.95038657811E+01 0.88428961917E+01 0.77900008764E+01
 0.63612271559E+01 0.46279480718E+01 0.27148230215E+01 0.78769283066E+00 -.96779222500E+00
 -.23725720784E+01 -.32795417721E+01 -.32795417721E+01 -.32795418117E+01 -.26682027842E+01
 -.15106187935E+01 0.70524897059E-01 0.19104925015E+01 0.38253032744E+01 0.56381701911E+01
 0.72037642017E+01 0.84249538446E+01 0.92595531216E+01 0.97179083616E+01 0.98539798579E+01
 0.97526082866E+01 0.95149077358E+01 0.92428516864E+01 0.90062650581E+01 0.88334258331E+01
 0.87423624337E+01 0.87423624735E+01 0.88334259406E+01 0.90062652014E+01 0.92428518248E+01
 0.95149078330E+01 0.97526083224E+01 0.98539798341E+01 0.97179083004E+01 0.92595530577E+01
 0.84249538135E+01 0.72037642294E+01 0.56381702868E+01 0.38253034295E+01 0.19104926926E+01
 0.70525092689E-01 -.15106186258E+01 -.26682026717E+01 -.23725720784E+01 -.26706726316E+01
 -.23725722108E+01 -.15106188732E+01 -.17803189595E+00 0.14828141716E+01 0.32997856696E+01
 0.50957007006E+01 0.67134808494E+01 0.80361479069E+01 0.89979261324E+01 0.95858901588E+01
 0.98340751410E+01 0.98127126388E+01 0.96147662622E+01 0.93413311931E+01 0.90802379467E+01
 0.88718139026E+01 0.87377036018E+01 0.86914639634E+01 0.87377037100E+01 0.88718140816E+01
 0.90802381351E+01 0.93413313284E+01 0.96147663029E+01 0.98127125793E+01 0.98340750128E+01
 0.95858900194E+01 0.89979260460E+01 0.80361479239E+01 0.67134809920E+01 0.50957009585E+01
 0.32997860053E+01 0.14828145316E+01 -.17803156798E+00 -.15106186258E+01 -.96779222500E+00
 -.15175788108E+01 -.15175788915E+01 -.96779245686E+00 0.70524740427E-01 0.14828141087E+01
 0.31169294950E+01 0.48050431199E+01 0.63879533226E+01 0.77366400826E+01 0.87667117828E+01
 0.94439611372E+01 0.97819206605E+01 0.98336768644E+01 0.96801593208E+01 0.94165612105E+01
 0.91366855502E+01 0.88969512893E+01 0.87226009337E+01 0.86309537908E+01 0.86309538351E+01
 0.87226010470E+01 0.88969514204E+01 0.91366856365E+01 0.94165612029E+01 0.96801592036E+01
 0.98336766628E+01 0.97819204337E+01 0.94439609596E+01 0.87667117206E+01 0.77366401745E+01
 0.63879535697E+01 0.48050434879E+01 0.31169299247E+01 0.14828145316E+01 0.70525092689E-01
 0.78769283066E+00 0.57849114872E-01 -.19519843748E+00 0.57848962607E-01 0.78769255122E+00
 0.19104923326E+01 0.32997856255E+01 0.48050431531E+01 0.62739266296E+01 0.75738343730E+01
 0.86083560443E+01 0.93260493801E+01 0.97214066710E+01 0.98295960309E+01 0.97169935673E+01
 0.94691700207E+01 0.91775370502E+01 0.89112218155E+01 0.87003252995E+01 0.85652193006E+01
 0.85187271788E+01 0.85652193283E+01 0.87003253325E+01 0.89112218176E+01 0.91775369869E+01
 0.94691698740E+01 0.97169933457E+01 0.98295957700E+01 0.97214064256E+01 0.93260492093E+01
 0.86083559955E+01 0.75738344691E+01 0.62739268631E+01 0.48050434879E+01 0.32997860053E+01
 0.19104926926E+01 0.27148230215E+01 0.18918285559E+01 0.14539396354E+01 0.14539395785E+01
 0.18918284015E+01 0.27148228140E+01 0.38253032266E+01 0.50957008138E+01 0.63879535173E+01
 0.75738345164E+01 0.85520971567E+01 0.92594831623E+01 0.96746486789E+01 0.98158395774E+01
 0.97339317557E+01 0.95023843599E+01 0.92053883904E+01 0.89176206998E+01 0.86747868990E+01
 0.84994157832E+01 0.84075645630E+01 0.84075645516E+01 0.84994157503E+01 0.86747868469E+01
 0.89176206294E+01 0.92053882989E+01 0.95023842416E+01 0.97339316060E+01 0.98158393988E+01
 0.96746484863E+01 0.92594829834E+01 0.85520970272E+01 0.75738344691E+01 0.63879535697E+01
 0.50957009585E+01 0.38253034295E+01 0.46279480718E+01 0.38012676526E+01 0.32595364217E+01
 0.30709525769E+01 0.32595363930E+01 0.38012676290E+01 0.46279481038E+01 0.56381704152E+01
 0.67134812248E+01 0.77366404785E+01 0.86083563064E+01 0.92594832303E+01 0.96571984042E+01
 0.98053010764E+01 0.97397588137E+01 0.95208219456E+01 0.92228774908E+01 0.89192077628E+01
 0.86499713171E+01 0.84388797798E+01 0.83044010643E+01 0.82582401725E+01 0.83044010148E+01
 0.84388797108E+01 0.86499712726E+01 0.89192077769E+01 0.92228775671E+01 0.95208220513E+01
 0.97397588903E+01 0.98053010647E+01 0.96571982706E+01 0.92594829834E+01 0.86083559955E+01
 0.77366401745E+01 0.67134809920E+01 0.56381702868E+01 0.63612271559E+01 0.56100095222E+01
 0.50459164531E+01 0.47434952322E+01 0.47434952730E+01 0.50459165867E+01 0.56100097732E+01
 0.63612275385E+01 0.72037647228E+01 0.80361484618E+01 0.87667122023E+01 0.93260495302E+01
 0.96746485765E+01 0.98053009178E+01 0.97409157151E+01 0.95287702720E+01 0.92322220711E+01
 0.89186431790E+01 0.86294408339E+01 0.83885666303E+01 0.82159448946E+01 0.81258975175E+01
 0.81258974823E+01 0.82159448171E+01 0.83885665811E+01 0.86294408903E+01 0.89186433843E+01
 0.92322224074E+01 0.95287706590E+01 0.97409160368E+01 0.98053010647E+01 0.96746484863E+01
 0.93260492093E+01 0.87667117206E+01 0.80361479239E+01 0.72037642294E+01 0.77900008764E+01
 0.71729906569E+01 0.66568815447E+01 0.63140956268E+01 0.61939974685E+01 0.63140958297E+01
 0.66568819353E+01 0.71729911981E+01 0.77900015020E+01 0.84249544287E+01 0.89979265405E+01
 0.94439612344E+01 0.97214064231E+01 0.98158391260E+01 0.97397584218E+01 0.95287701175E+01
 0.92351211767E+01 0.89178573458E+01 0.86159620159E+01 0.83525811901E+01 0.81480937548E+01
 0.80185504457E+01 0.79741965240E+01 0.80185503666E+01 0.81480936562E+01 0.83525811651E+01
 0.86159621484E+01 0.89178576708E+01 0.92351216594E+01 0.95287706590E+01 0.97397588903E+01
 0.98158393988E+01 0.97214064256E+01 0.94439609596E+01 0.89979260460E+01 0.84249538135E+01
 0.88428961917E+01 0.83929907914E+01 0.79756177708E+01 0.76544840264E+01 0.74800013661E+01
 0.74800015083E+01 0.76544844201E+01 0.79756183257E+01 0.83929913814E+01 0.88428966856E+01