   2   2   0   0
  0.1104852E+02  0.2500000E-09  0.2500000E-09  0.4082475E-09  0.5000000E-15
  1.000000000000000E-004
  CAR 
 Si beta-tin                             
     28.66734511     -4.28022636  301     14.13698403      1.00000000
     -4.280  0.0000E+00  0.0000E+00
     -4.170  0.0000E+00  0.0000E+00
     -4.061  0.0000E+00  0.0000E+00
     -3.951  0.0000E+00  0.0000E+00
     -3.841  0.0000E+00  0.0000E+00
     -3.731  0.0000E+00  0.0000E+00
     -3.621  0.0000E+00  0.0000E+00
     -3.511  0.0000E+00  0.0000E+00
     -3.402  0.0000E+00  0.0000E+00
     -3.292  0.1008E-14  0.1107E-15
     -3.182  0.2739E-10  0.3008E-11
     -3.072  0.7125E-07  0.7828E-08
     -2.962  0.1854E-04  0.2044E-05
     -2.852  0.5260E-03  0.5981E-04
     -2.743  0.1863E-02  0.2644E-03
     -2.633  0.9074E-03  0.3641E-03
     -2.523  0.8899E-04  0.3738E-03
     -2.413  0.8230E-03  0.4642E-03
     -2.303  0.3261E-02  0.8224E-03
     -2.194  0.2335E-02  0.1079E-02
     -2.084  0.2928E-03  0.1111E-02
     -1.974  0.2316E-03  0.1136E-02
     -1.864  0.1543E-02  0.1306E-02
     -1.754  0.1422E-02  0.1462E-02
     -1.644  0.3323E-03  0.1499E-02
     -1.535  0.2090E-02  0.1728E-02
     -1.425  0.3868E-02  0.2153E-02
     -1.315  0.2454E-02  0.2422E-02
     -1.205  0.1549E-02  0.2593E-02
     -1.095  0.2365E-02  0.2852E-02
     -0.985  0.5707E-02  0.3479E-02
     -0.876  0.4033E-02  0.3922E-02
     -0.766  0.1313E-02  0.4066E-02
     -0.656  0.7503E-03  0.4149E-02
     -0.546  0.1896E-02  0.4357E-02
     -0.436  0.7734E-03  0.4442E-02
     -0.327  0.6846E-03  0.4517E-02
     -0.217  0.3479E-02  0.4899E-02
     -0.107  0.3950E-02  0.5333E-02
      0.003  0.4172E-02  0.5791E-02
      0.113  0.2856E-02  0.6105E-02
      0.223  0.4064E-02  0.6551E-02
      0.332  0.4778E-02  0.7076E-02
      0.442  0.2796E-02  0.7383E-02
      0.552  0.2056E-02  0.7609E-02
      0.662  0.1381E-02  0.7760E-02
      0.772  0.1586E-03  0.7778E-02
      0.882  0.1487E-03  0.7794E-02
      0.991  0.2032E-02  0.8017E-02
      1.101  0.4153E-02  0.8473E-02
      1.211  0.4154E-02  0.8930E-02
      1.321  0.4374E-02  0.9410E-02
      1.431  0.7823E-02  0.1027E-01
      1.541  0.8487E-02  0.1120E-01
      1.650  0.2491E-02  0.1147E-01
      1.760  0.1170E-02  0.1160E-01
      1.870  0.3518E-02  0.1199E-01
      1.980  0.4974E-02  0.1254E-01
      2.090  0.3127E-02  0.1288E-01
      2.199  0.1251E-02  0.1302E-01
      2.309  0.2126E-02  0.1325E-01
      2.419  0.4099E-02  0.1370E-01
      2.529  0.6081E-02  0.1437E-01
      2.639  0.5583E-02  0.1498E-01
      2.749  0.6460E-02  0.1569E-01
      2.858  0.5199E-02  0.1626E-01
      2.968  0.3256E-02  0.1662E-01
      3.078  0.8797E-03  0.1672E-01
      3.188  0.2523E-02  0.1699E-01
      3.298  0.4537E-02  0.1749E-01
      3.408  0.2956E-02  0.1782E-01
      3.517  0.3529E-02  0.1820E-01
      3.627  0.4029E-02  0.1865E-01
      3.737  0.4361E-02  0.1913E-01
      3.847  0.4328E-02  0.1960E-01
      3.957  0.5995E-02  0.2026E-01
      4.066  0.5003E-02  0.2081E-01
      4.176  0.3081E-02  0.2115E-01
      4.286  0.4135E-02  0.2160E-01
      4.396  0.4363E-02  0.2208E-01
      4.506  0.4626E-02  0.2259E-01
      4.616  0.3373E-02  0.2296E-01
      4.725  0.3689E-02  0.2336E-01
      4.835  0.6567E-02  0.2408E-01
      4.945  0.6039E-02  0.2475E-01
      5.055  0.4894E-02  0.2529E-01
      5.165  0.4658E-02  0.2580E-01
      5.275  0.5140E-02  0.2636E-01
      5.384  0.3315E-02  0.2673E-01
      5.494  0.4269E-02  0.2719E-01
      5.604  0.5607E-02  0.2781E-01
      5.714  0.7454E-02  0.2863E-01
      5.824  0.5269E-02  0.2921E-01
      5.934  0.3787E-02  0.2962E-01
      6.043  0.8850E-02  0.3060E-01
      6.153  0.1227E-01  0.3194E-01
      6.263  0.7173E-02  0.3273E-01
      6.373  0.5962E-02  0.3339E-01
      6.483  0.3567E-02  0.3378E-01
      6.592  0.2195E-02  0.3402E-01
      6.702  0.2266E-02  0.3427E-01
      6.812  0.4961E-02  0.3481E-01
      6.922  0.3104E-02  0.3515E-01
      7.032  0.1222E-02  0.3529E-01
      7.142  0.5317E-02  0.3587E-01
      7.251  0.8760E-02  0.3683E-01
      7.361  0.6923E-02  0.3759E-01
      7.471  0.3355E-02  0.3796E-01
      7.581  0.6715E-02  0.3870E-01
      7.691  0.6883E-02  0.3946E-01
      7.801  0.1672E-02  0.3964E-01
      7.910  0.2626E-02  0.3993E-01
      8.020  0.7820E-02  0.4079E-01
      8.130  0.7071E-02  0.4156E-01
      8.240  0.4321E-02  0.4204E-01
      8.350  0.6724E-02  0.4278E-01
      8.460  0.6697E-02  0.4351E-01
      8.569  0.1801E-02  0.4371E-01
      8.679  0.1705E-02  0.4390E-01
      8.789  0.6406E-02  0.4460E-01
      8.899  0.9073E-02  0.4560E-01
      9.009  0.4167E-02  0.4605E-01
      9.118  0.5490E-02  0.4666E-01
      9.228  0.4802E-02  0.4718E-01
      9.338  0.7203E-02  0.4798E-01
      9.448  0.9470E-02  0.4902E-01
      9.558  0.9301E-02  0.5004E-01
      9.668  0.4867E-02  0.5057E-01
      9.777  0.1565E-02  0.5074E-01
      9.887  0.2308E-02  0.5100E-01
      9.997  0.5816E-02  0.5164E-01
     10.107  0.5494E-02  0.5224E-01
     10.217  0.5991E-02  0.5290E-01
     10.327  0.1242E-01  0.5426E-01
     10.436  0.1183E-01  0.5556E-01
     10.546  0.9327E-02  0.5658E-01
     10.656  0.7556E-02  0.5741E-01
     10.766  0.4058E-02  0.5786E-01
     10.876  0.2109E-02  0.5809E-01
     10.985  0.4960E-03  0.5815E-01
     11.095  0.5674E-04  0.5815E-01
     11.205  0.1512E-02  0.5832E-01
     11.315  0.9617E-02  0.5937E-01
     11.425  0.1490E-01  0.6101E-01
     11.535  0.1254E-01  0.6239E-01
     11.644  0.9639E-02  0.6345E-01
     11.754  0.5590E-02  0.6406E-01
     11.864  0.7317E-02  0.6486E-01
     11.974  0.6249E-02  0.6555E-01
     12.084  0.8616E-02  0.6650E-01
     12.194  0.8481E-02  0.6743E-01
     12.303  0.8561E-02  0.6837E-01
     12.413  0.4743E-02  0.6889E-01
     12.523  0.6084E-02  0.6956E-01
     12.633  0.9322E-02  0.7058E-01
     12.743  0.3849E-02  0.7100E-01
     12.853  0.1108E-02  0.7113E-01
     12.962  0.2788E-02  0.7143E-01
     13.072  0.5824E-02  0.7207E-01
     13.182  0.5597E-02  0.7269E-01
     13.292  0.9630E-02  0.7374E-01
     13.402  0.1405E-01  0.7529E-01
     13.511  0.1254E-01  0.7667E-01
     13.621  0.6880E-02  0.7742E-01
     13.731  0.5426E-02  0.7802E-01
     13.841  0.3861E-02  0.7844E-01
     13.951  0.3833E-02  0.7886E-01
     14.061  0.5005E-02  0.7941E-01
     14.170  0.8178E-02  0.8031E-01
     14.280  0.9536E-02  0.8136E-01
     14.390  0.6071E-02  0.8202E-01
     14.500  0.3264E-02  0.8238E-01
     14.610  0.9410E-02  0.8342E-01
     14.720  0.1202E-01  0.8474E-01
     14.829  0.5868E-02  0.8538E-01
     14.939  0.7833E-02  0.8624E-01
     15.049  0.6185E-02  0.8692E-01
     15.159  0.2615E-02  0.8721E-01
     15.269  0.6194E-02  0.8789E-01
     15.378  0.7747E-02  0.8874E-01
     15.488  0.4756E-02  0.8926E-01
     15.598  0.4448E-02  0.8975E-01
     15.708  0.8985E-02  0.9074E-01
     15.818  0.8791E-02  0.9170E-01
     15.928  0.6658E-02  0.9243E-01
     16.037  0.4339E-02  0.9291E-01
     16.147  0.3147E-02  0.9325E-01
     16.257  0.3559E-02  0.9364E-01
     16.367  0.4033E-02  0.9409E-01
     16.477  0.1520E-01  0.9576E-01
     16.587  0.1738E-01  0.9767E-01
     16.696  0.1121E-01  0.9890E-01
     16.806  0.1455E-01  0.1005E+00
     16.916  0.1452E-01  0.1021E+00
     17.026  0.1005E-01  0.1032E+00
     17.136  0.4102E-02  0.1036E+00
     17.246  0.6436E-03  0.1037E+00
     17.355  0.1208E-02  0.1038E+00
     17.465  0.1765E-02  0.1040E+00
     17.575  0.1537E-02  0.1042E+00
     17.685  0.4838E-02  0.1047E+00
     17.795  0.7854E-02  0.1056E+00
     17.904  0.1025E-01  0.1067E+00
     18.014  0.1460E-01  0.1083E+00
     18.124  0.1802E-01  0.1103E+00
     18.234  0.1768E-01  0.1123E+00
     18.344  0.1503E-01  0.1139E+00
     18.454  0.8000E-02  0.1148E+00
     18.563  0.5240E-02  0.1154E+00
     18.673  0.8057E-02  0.1162E+00
     18.783  0.9814E-02  0.1173E+00
     18.893  0.5482E-02  0.1179E+00
     19.003  0.5849E-02  0.1186E+00
     19.113  0.2954E-02  0.1189E+00
     19.222  0.2446E-02  0.1192E+00
     19.332  0.3656E-02  0.1196E+00
     19.442  0.3433E-02  0.1199E+00
     19.552  0.1069E-01  0.1211E+00
     19.662  0.1527E-01  0.1228E+00
     19.772  0.9443E-02  0.1238E+00
     19.881  0.6502E-02  0.1245E+00
     19.991  0.4552E-02  0.1250E+00
     20.101  0.2689E-02  0.1253E+00
     20.211  0.1101E-01  0.1265E+00
     20.321  0.1953E-01  0.1287E+00
     20.430  0.8095E-02  0.1296E+00
     20.540  0.2524E-02  0.1299E+00
     20.650  0.5248E-02  0.1304E+00
     20.760  0.3751E-02  0.1308E+00
     20.870  0.7243E-02  0.1316E+00
     20.980  0.1167E-01  0.1329E+00
     21.089  0.1007E-01  0.1340E+00
     21.199  0.8350E-02  0.1349E+00
     21.309  0.9356E-02  0.1360E+00
     21.419  0.1228E-01  0.1373E+00
     21.529  0.8113E-02  0.1382E+00
     21.639  0.2590E-02  0.1385E+00
     21.748  0.2365E-02  0.1388E+00
     21.858  0.9367E-02  0.1398E+00
     21.968  0.1073E-01  0.1410E+00
     22.078  0.6352E-02  0.1417E+00
     22.188  0.5298E-02  0.1422E+00
     22.297  0.1293E-01  0.1437E+00
     22.407  0.1188E-01  0.1450E+00
     22.517  0.9392E-02  0.1460E+00
     22.627  0.7548E-02  0.1468E+00
     22.737  0.6695E-02  0.1476E+00
     22.847  0.4047E-02  0.1480E+00
     22.956  0.3816E-02  0.1484E+00
     23.066  0.2229E-02  0.1487E+00
     23.176  0.3883E-02  0.1491E+00
     23.286  0.3131E-02  0.1494E+00
     23.396  0.7106E-02  0.1502E+00
     23.506  0.9582E-02  0.1513E+00
     23.615  0.5703E-02  0.1519E+00
     23.725  0.5194E-02  0.1525E+00
     23.835  0.7317E-02  0.1533E+00
     23.945  0.1011E-01  0.1544E+00
     24.055  0.9932E-02  0.1555E+00
     24.165  0.3817E-02  0.1559E+00
     24.274  0.3001E-03  0.1559E+00
     24.384  0.1397E-03  0.1559E+00
     24.494  0.1299E-02  0.1561E+00
     24.604  0.1646E-02  0.1563E+00
     24.714  0.2835E-03  0.1563E+00
     24.823  0.6710E-05  0.1563E+00
     24.933  0.9880E-04  0.1563E+00
     25.043  0.1752E-02  0.1565E+00
     25.153  0.6373E-02  0.1572E+00
     25.263  0.4702E-02  0.1577E+00
     25.373  0.5802E-03  0.1578E+00
     25.482  0.6353E-03  0.1578E+00
     25.592  0.1915E-02  0.1581E+00
     25.702  0.1402E-02  0.1582E+00
     25.812  0.2434E-02  0.1585E+00
     25.922  0.2674E-02  0.1588E+00
     26.032  0.1166E-02  0.1589E+00
     26.141  0.1511E-02  0.1591E+00
     26.251  0.1516E-02  0.1592E+00
     26.361  0.2140E-03  0.1593E+00
     26.471  0.3610E-05  0.1593E+00
     26.581  0.8044E-05  0.1593E+00
     26.690  0.3370E-03  0.1593E+00
     26.800  0.1719E-02  0.1595E+00
     26.910  0.1197E-02  0.1596E+00
     27.020  0.1675E-03  0.1596E+00
     27.130  0.9084E-03  0.1597E+00
     27.240  0.1863E-02  0.1599E+00
     27.349  0.5260E-03  0.1600E+00
     27.459  0.1854E-04  0.1600E+00
     27.569  0.7125E-07  0.1600E+00
     27.679  0.2739E-10  0.1600E+00
     27.789  0.1008E-14  0.1600E+00
     27.899  0.0000E+00  0.1600E+00
     28.008  0.0000E+00  0.1600E+00
     28.118  0.0000E+00  0.1600E+00
     28.228  0.0000E+00  0.1600E+00
     28.338  0.0000E+00  0.1600E+00
     28.448  0.0000E+00  0.1600E+00
     28.558  0.0000E+00  0.1600E+00
     28.667  0.0000E+00  0.1600E+00
