    2    2  100    1
  0.1104852E+02  0.2500000E-09  0.2500000E-09  0.4082475E-09  0.5000000E-15
  1.000000000000000E-004
  CAR 
 Si beta-tin                             
      8     36      8
 
  0.8333333E-01  0.8333333E-01  0.8333333E-01  0.1851852E-01
    1       -2.355272   1.000000
    2        4.795488   1.000000
    3        7.615937   1.000000
    4       19.471625   0.000000
    5       19.519754   0.000000
    6       25.543514   0.000000
    7       25.765526   0.000000
    8       25.883658   0.000000
 
  0.2500000E+00  0.8333333E-01  0.8333333E-01  0.3703704E-01
    1       -0.235041   1.000000
    2        6.803157   1.000000
    3        9.513316   1.000000
    4       12.307414   1.000000
    5       16.748653   0.000000
    6       18.968533   0.000000
    7       21.350721   0.000000
    8       23.692937   0.000000
 
  0.4166667E+00  0.8333333E-01  0.8333333E-01  0.3703704E-01
    1        3.505665   1.000000
    2        5.952479   1.000000
    3       10.473859   1.000000
    4       12.558575   1.000000
    5       13.557984   1.000000
    6       15.261276   0.000000
    7       16.543231   0.000000
    8       22.485205   0.000000
 
 -0.4166667E+00  0.8333333E-01  0.8333333E-01  0.3703704E-01
    1        1.441142   1.000000
    2        8.104188   1.000000
    3        9.101129   1.000000
    4       11.370502   1.000000
    5       15.391332   0.000000
    6       16.447988   0.000000
    7       18.560961   0.000000
    8       22.878691   0.000000
 
 -0.2500000E+00  0.8333333E-01  0.8333333E-01  0.3703704E-01
    1       -1.503919   1.000000
    2        5.606223   1.000000
    3        8.405202   1.000000
    4       15.734836   0.000000
    5       17.968589   0.000000
    6       22.244898   0.000000
    7       24.019221   0.000000
    8       25.151143   0.000000
 
 -0.8333333E-01  0.8333333E-01  0.8333333E-01  0.1851852E-01
    1       -2.782609   1.000000
    2        4.387672   1.000000
    3        7.215565   1.000000
    4       21.318848   0.000000
    5       22.712200   0.000000
    6       24.507154   0.000000
    7       26.780182   0.000000
    8       27.169728   0.000000
 
  0.2500000E+00  0.2500000E+00  0.8333333E-01  0.1851852E-01
    1        2.687086   1.000000
    2        9.068046   1.000000
    3       10.149155   1.000000
    4       10.360604   1.000000
    5       12.699663   1.000000
    6       16.606783   0.000000
    7       17.375441   0.000000
    8       19.959279   0.000000
 
  0.4166667E+00  0.2500000E+00  0.8333333E-01  0.3703704E-01
    1        4.734296   1.000000
    2        7.151366   1.000000
    3        9.504533   1.000000
    4       11.786490   1.000000
    5       13.678717   1.000000
    6       14.888956   0.000000
    7       16.503571   0.000000
    8       17.818645   0.000000
 
 -0.4166667E+00  0.2500000E+00  0.8333333E-01  0.3703704E-01
    1        1.024106   1.000000
    2        7.956648   1.000000
    3       10.276790   1.000000
    4       11.471483   1.000000
    5       13.431775   1.000000
    6       17.763704   0.000000
    7       19.667523   0.000000
    8       21.146617   0.000000
 
 -0.2500000E+00  0.2500000E+00  0.8333333E-01  0.1851852E-01
    1       -1.079881   1.000000
    2        6.008028   1.000000
    3        8.787320   1.000000
    4       13.817014   0.999997
    5       19.815716   0.000000
    6       20.169707   0.000000
    7       21.887194   0.000000
    8       23.326863   0.000000
 
  0.4166667E+00  0.4166667E+00  0.8333333E-01  0.1851852E-01
    1        5.003953   1.000000
    2        5.289443   1.000000
    3       11.506589   1.000000
    4       12.243867   1.000000
    5       12.558996   1.000000
    6       14.897861   0.000000
    7       15.645087   0.000000
    8       19.661232   0.000000
 
 -0.4166667E+00  0.4166667E+00  0.8333333E-01  0.1851852E-01
    1        2.271460   1.000000
    2        7.096618   1.000000
    3        9.364377   1.000000
    4       12.030080   1.000000
    5       14.254005   0.048970
    6       16.768801   0.000000
    7       18.367765   0.000000
    8       20.909760   0.000000
 
  0.8333333E-01  0.8333333E-01  0.2500000E+00  0.1851852E-01
    1       -1.868689   1.000000
    2        2.449259   1.000000
    3       10.802696   1.000000
    4       19.820863   0.000000
    5       19.881177   0.000000
    6       22.650897   0.000000
    7       23.780846   0.000000
    8       24.046131   0.000000
 
  0.2500000E+00  0.8333333E-01  0.2500000E+00  0.3703704E-01
    1        0.245477   1.000000
    2        4.502728   1.000000
    3       12.094917   1.000000
    4       13.237518   1.000000
    5       16.413193   0.000000
    6       17.639541   0.000000
    7       21.222261   0.000000
    8       23.894447   0.000000
 
  0.4166667E+00  0.8333333E-01  0.2500000E+00  0.3703704E-01
    1        3.971016   1.000000
    2        6.345999   1.000000
    3        8.333275   1.000000
    4       10.639219   1.000000
    5       15.669661   0.000000
    6       16.867824   0.000000
    7       18.723422   0.000000
    8       20.582112   0.000000
 
 -0.4166667E+00  0.8333333E-01  0.2500000E+00  0.3703704E-01
    1        1.916298   1.000000
    2        6.092462   1.000000
    3        9.374441   1.000000
    4       13.198187   1.000000
    5       14.574448   0.000000
    6       16.752105   0.000000
    7       20.280701   0.000000
    8       21.836240   0.000000
 
 -0.2500000E+00  0.8333333E-01  0.2500000E+00  0.3703704E-01
    1       -1.019742   1.000000
    2        3.275427   1.000000
    3       11.546678   1.000000
    4       16.166019   0.000000
    5       18.319541   0.000000
    6       20.201398   0.000000
    7       22.341127   0.000000
    8       23.509802   0.000000
 
 -0.8333333E-01  0.8333333E-01  0.2500000E+00  0.1851852E-01
    1       -2.294820   1.000000
    2        2.034205   1.000000
    3       10.417656   1.000000
    4       21.445203   0.000000
    5       22.424320   0.000000
    6       23.118936   0.000000
    7       25.070521   0.000000
    8       26.143856   0.000000
 
  0.2500000E+00  0.2500000E+00  0.2500000E+00  0.1851852E-01
    1        3.157627   1.000000
    2        7.254281   1.000000
    3       10.522297   1.000000
    4       10.581984   1.000000
    5       14.225290   0.105863
    6       14.634629   0.000000
    7       16.618051   0.000000
    8       22.595295   0.000000
 
  0.4166667E+00  0.2500000E+00  0.2500000E+00  0.3703704E-01
    1        5.192583   1.000000
    2        7.523298   1.000000
    3        9.285868   1.000000
    4       10.332054   1.000000
    5       11.995287   1.000000
    6       14.188926   0.231301
    7       18.094013   0.000000
    8       20.301605   0.000000
 
 -0.4166667E+00  0.2500000E+00  0.2500000E+00  0.3703704E-01
    1        1.500709   1.000000
    2        5.710957   1.000000
    3       11.277158   1.000000
    4       13.369576   1.000000
    5       14.098402   0.707340
    6       15.949221   0.000000
    7       18.049464   0.000000
    8       23.452666   0.000000
 
 -0.2500000E+00  0.2500000E+00  0.2500000E+00  0.1851852E-01
    1       -0.596909   1.000000
    2        3.686213   1.000000
    3       11.865962   1.000000
    4       14.309925   0.007227
    5       18.165291   0.000000
    6       20.229064   0.000000
    7       22.061746   0.000000
    8       23.959164   0.000000
 
  0.4166667E+00  0.4166667E+00  0.2500000E+00  0.1851852E-01
    1        5.456969   1.000000
    2        5.733070   1.000000
    3        9.651023   1.000000
    4       10.015823   1.000000
    5       13.019378   1.000000
    6       16.515639   0.000000
    7       18.289272   0.000000
    8       18.953520   0.000000
 
 -0.4166667E+00  0.4166667E+00  0.2500000E+00  0.1851852E-01
    1        2.743288   1.000000
    2        6.724988   1.000000
    3        7.961236   1.000000
    4       11.792709   1.000000
    5       15.310265   0.000000
    6       18.781501   0.000000
    7       19.497597   0.000000
    8       21.439941   0.000000
 
  0.8333333E-01  0.8333333E-01  0.4166667E+00  0.1851852E-01
    1       -0.899660   1.000000
    2        0.543696   1.000000
    3       14.367994   0.000544
    4       18.164379   0.000000
    5       20.650950   0.000000
    6       20.966268   0.000000
    7       22.247568   0.000000
    8       22.466832   0.000000
 
  0.2500000E+00  0.8333333E-01  0.4166667E+00  0.3703704E-01
    1        1.202134   1.000000
    2        2.626086   1.000000
    3       13.357974   1.000000
    4       14.606891   0.000000
    5       16.458911   0.000000
    6       18.178431   0.000000
    7       19.612036   0.000000
    8       20.842071   0.000000
 
  0.4166667E+00  0.8333333E-01  0.4166667E+00  0.3703704E-01
    1        4.887521   1.000000
    2        6.151816   1.000000
    3        7.618679   1.000000
    4        8.862274   1.000000
    5       16.887775   0.000000
    6       18.064601   0.000000
    7       20.296048   0.000000
    8       22.248740   0.000000
 
 -0.4166667E+00  0.8333333E-01  0.4166667E+00  0.3703704E-01
    1        2.861306   1.000000
    2        4.263812   1.000000
    3       10.267011   1.000000
    4       11.602112   1.000000
    5       17.035425   0.000000
    6       17.937242   0.000000
    7       19.246874   0.000000
    8       21.973354   0.000000
 
 -0.2500000E+00  0.8333333E-01  0.4166667E+00  0.3703704E-01
    1       -0.055550   1.000000
    2        1.380380   1.000000
    3       14.975655   0.000000
    4       16.933820   0.000000
    5       18.211911   0.000000
    6       18.717705   0.000000
    7       20.238168   0.000000
    8       20.970676   0.000000
 
 -0.8333333E-01  0.8333333E-01  0.4166667E+00  0.1851852E-01
    1       -1.323387   1.000000
    2        0.123587   1.000000
    3       14.012600   0.960716
    4       17.929630   0.000000
    5       22.657350   0.000000
    6       23.823344   0.000000
    7       23.931627   0.000000
    8       25.145728   0.000000
 
  0.2500000E+00  0.2500000E+00  0.4166667E+00  0.1851852E-01
    1        4.092275   1.000000
    2        5.474359   1.000000
    3       11.308381   1.000000
    4       11.370601   1.000000
    5       12.985773   1.000000
    6       13.002189   1.000000
    7       19.587334   0.000000
    8       23.129155   0.000000
 
  0.4166667E+00  0.2500000E+00  0.4166667E+00  0.3703704E-01
    1        6.090718   1.000000
    2        7.305768   1.000000
    3        8.815247   1.000000
    4        9.920292   1.000000
    5       11.343261   1.000000
    6       12.533573   1.000000
    7       21.381940   0.000000
    8       23.374880   0.000000
 
 -0.4166667E+00  0.2500000E+00  0.4166667E+00  0.3703704E-01
    1        2.449153   1.000000
    2        3.859064   1.000000
    3       12.203343   1.000000
    4       13.420378   1.000000
    5       14.699085   0.000000
    6       15.834516   0.000000
    7       18.324195   0.000000
    8       21.809294   0.000000
 
 -0.2500000E+00  0.2500000E+00  0.4166667E+00  0.1851852E-01
    1        0.364827   1.000000
    2        1.796905   1.000000
    3       14.659650   0.000000
    4       15.560047   0.000000
    5       16.747328   0.000000
    6       19.532668   0.000000
    7       21.056939   0.000000
    8       22.300673   0.000000
 
  0.4166667E+00  0.4166667E+00  0.4166667E+00  0.1851852E-01
    1        6.304483   1.000000
    2        6.528795   1.000000
    3        8.027608   1.000000
    4        8.266827   1.000000
    5       13.907891   0.999402
    6       15.195255   0.000000
    7       21.538935   0.000000
    8       21.914192   0.000000
 
 -0.4166667E+00  0.4166667E+00  0.4166667E+00  0.1851852E-01
    1        3.680017   1.000000
    2        5.059772   1.000000
    3        8.698315   1.000000
    4       10.037912   1.000000
    5       18.583051   0.000000
    6       19.610321   0.000000
    7       20.856547   0.000000
    8       21.014531   0.000000
