 vasp.5.4.1 24Jun15 (build Jul 19 2016 16:50:41) complex                        
  
 executed on           IFC91_ompi date 2019.10.10  11:11:36
 running on    4 total cores
 distrk:  each k-point on    4 cores,    1 groups
 distr:  one band on NCORES_PER_BAND=   1 cores,    4 groups


--------------------------------------------------------------------------------------------------------


 INCAR:
 POTCAR:    PAW_PBE Si 05Jan2001                  
 POTCAR:    PAW_PBE Si 05Jan2001                  
   VRHFIN = Si: s2p2                                                            
   LEXCH  = PE                                                                  
   EATOM  =   103.0669 eV,    7.5752 Ry                                         
                                                                                
   TITEL  = PAW_PBE Si 05Jan2001                                                
   LULTRA =        F    use ultrasoft PP ?                                      
   IUNSCR =        1    unscreen: 0-lin 1-nonlin 2-no                           
   RPACOR =    1.500    partial core radius                                     
   POMASS =   28.085; ZVAL   =    4.000    mass and valenz                      
   RCORE  =    1.900    outmost cutoff radius                                   
   RWIGS  =    2.480; RWIGS  =    1.312    wigner-seitz radius (au A)           
   ENMAX  =  245.345; ENMIN  =  184.009 eV                                      
   ICORE  =        2    local potential                                         
   LCOR   =        T    correct aug charges                                     
   LPAW   =        T    paw PP                                                  
   EAUG   =  322.069                                                            
   DEXC   =    0.000                                                            
   RMAX   =    1.950    core radius for proj-oper                               
   RAUG   =    1.300    factor for augmentation sphere                          
   RDEP   =    1.993    radius for radial grids                                 
   RDEPT  =    1.837    core radius for aug-charge                              
                                                                                
   Atomic configuration                                                         
    6 entries                                                                   
     n  l   j            E        occ.                                          
     1  0  0.50     -1785.8828   2.0000                                         
     2  0  0.50      -139.4969   2.0000                                         
     2  1  1.50       -95.5546   6.0000                                         
     3  0  0.50       -10.8127   2.0000                                         
     3  1  0.50        -4.0811   2.0000                                         
     3  2  1.50        -4.0817   0.0000                                         
   Description                                                                  
     l       E           TYP  RCUT    TYP  RCUT                                 
     0    -10.8127223     23  1.900                                             
     0     -7.6451159     23  1.900                                             
     1     -4.0811372     23  1.900                                             
     1      2.4879257     23  1.900                                             
     2     -4.0817478      7  1.900                                             
  local pseudopotential read in
  partial core-charges read in
  partial kinetic energy density read in
  atomic valenz-charges read in
  non local Contribution for L=           0  read in
    real space projection operators read in
  non local Contribution for L=           0  read in
    real space projection operators read in
  non local Contribution for L=           1  read in
    real space projection operators read in
  non local Contribution for L=           1  read in
    real space projection operators read in
    PAW grid and wavefunctions read in
 
   number of l-projection  operators is LMAX  =           4
   number of lm-projection operators is LMMAX =           8
 
  PAW_PBE Si 05Jan2001                  :
 energy of atom  1       EATOM= -103.0669
 kinetic energy error for atom=    0.0009 (will be added to EATOM!!)
 
 
 POSCAR: Si HCP                                  
  positions in direct lattice
  No initial velocities read in
 exchange correlation table for  LEXCH =        8
   RHO(1)=    0.500       N(1)  =     2000
   RHO(2)=  100.500       N(2)  =     4000
 


--------------------------------------------------------------------------------------------------------


 ion  position               nearest neighbor table
   1  0.000  0.000  0.000-   2 2.50   2 2.50   2 2.50   2 2.50   2 2.50   2 2.50
   2  0.333  0.667  0.500-   1 2.50   1 2.50   1 2.50   1 2.50   1 2.50   1 2.50
 
  LATTYP: Found a hexagonal cell.
 ALAT       =     2.5000000000
 C/A-ratio  =     1.6329900000
  
  Lattice vectors:
  
 A1 = (   2.5000000000,   0.0000000000,   0.0000000000)
 A2 = (  -1.2500000000,   2.1650635095,   0.0000000000)
 A3 = (   0.0000000000,   0.0000000000,   4.0824750000)


Analysis of symmetry for initial positions (statically):
=====================================================================
 Subroutine PRICEL returns:
 Original cell was already a primitive cell.
 

 Routine SETGRP: Setting up the symmetry group for a 
 hexagonal supercell.


 Subroutine GETGRP returns: Found 24 space group operations
 (whereof 12 operations were pure point group operations)
 out of a pool of 24 trial point group operations.


The static configuration has the point symmetry D_3h.
 The point group associated with its full space group is D_6h.


Analysis of symmetry for dynamics (positions and initial velocities):
=====================================================================
 Subroutine PRICEL returns:
 Original cell was already a primitive cell.
 

 Routine SETGRP: Setting up the symmetry group for a 
 hexagonal supercell.


 Subroutine GETGRP returns: Found 24 space group operations
 (whereof 12 operations were pure point group operations)
 out of a pool of 24 trial point group operations.


The dynamic configuration has the point symmetry D_3h.
 The point group associated with its full space group is D_6h.


 Subroutine INISYM returns: Found 24 space group operations
 (whereof 12 operations are pure point group operations),
 and found     1 'primitive' translations

 
 
 KPOINTS: K-Points                                

Automatic generation of k-mesh.
Space group operators:
 irot       det(A)        alpha          n_x          n_y          n_z        tau_x        tau_y        tau_z
    1     1.000000     0.000000     1.000000     0.000000     0.000000     0.000000     0.000000     0.000000
    2    -1.000000    60.000000     0.000000     0.000000    -1.000000     0.000000     0.000000     0.000000
    3     1.000000   120.000000     0.000000     0.000000    -1.000000     0.000000     0.000000     0.000000
    4    -1.000000   179.999999     0.000000     0.000000     1.000000     0.000000     0.000000     0.000000
    5     1.000000   120.000000     0.000000     0.000000     1.000000     0.000000     0.000000     0.000000
    6    -1.000000    60.000000     0.000000     0.000000     1.000000     0.000000     0.000000     0.000000
    7    -1.000000   180.000000     1.000000     0.000000     0.000000     0.000000     0.000000     0.000000
    8     1.000000   180.000000     0.866025    -0.500000     0.000000     0.000000     0.000000     0.000000
    9    -1.000000   180.000000     0.500000    -0.866025     0.000000     0.000000     0.000000     0.000000
   10     1.000000   180.000000     0.000000     1.000000     0.000000     0.000000     0.000000     0.000000
   11    -1.000000   180.000000    -0.500000    -0.866025     0.000000     0.000000     0.000000     0.000000
   12     1.000000   180.000000     0.866025     0.500000     0.000000     0.000000     0.000000     0.000000
   13    -1.000000     0.000000     1.000000     0.000000     0.000000     0.333333     0.666667     0.500000
   14     1.000000    60.000000     0.000000     0.000000    -1.000000     0.333333     0.666667     0.500000
   15    -1.000000   120.000000     0.000000     0.000000    -1.000000     0.333333     0.666667     0.500000
   16     1.000000   179.999999     0.000000     0.000000     1.000000     0.333333     0.666667     0.500000
   17    -1.000000   120.000000     0.000000     0.000000     1.000000     0.333333     0.666667     0.500000
   18     1.000000    60.000000     0.000000     0.000000     1.000000     0.333333     0.666667     0.500000
   19     1.000000   180.000000     1.000000     0.000000     0.000000     0.333333     0.666667     0.500000
   20    -1.000000   180.000000     0.866025    -0.500000     0.000000     0.333333     0.666667     0.500000
   21     1.000000   180.000000     0.500000    -0.866025     0.000000     0.333333     0.666667     0.500000
   22    -1.000000   180.000000     0.000000     1.000000     0.000000     0.333333     0.666667     0.500000
   23     1.000000   180.000000    -0.500000    -0.866025     0.000000     0.333333     0.666667     0.500000
   24    -1.000000   180.000000     0.866025     0.500000     0.000000     0.333333     0.666667     0.500000
 
 Subroutine IBZKPT returns following result:
 ===========================================
 
 Found     36 irreducible k-points:
 
 Following reciprocal coordinates:
            Coordinates               Weight
  0.083333  0.083333  0.083333     96.000000
  0.250000  0.083333  0.083333    192.000000
  0.416667  0.083333  0.083333    192.000000
 -0.416667  0.083333  0.083333    192.000000
 -0.250000  0.083333  0.083333    192.000000
 -0.083333  0.083333  0.083333     96.000000
  0.250000  0.250000  0.083333     96.000000
  0.416667  0.250000  0.083333    192.000000
 -0.416667  0.250000  0.083333    192.000000
 -0.250000  0.250000  0.083333     96.000000
  0.416667  0.416667  0.083333     96.000000
 -0.416667  0.416667  0.083333     96.000000
  0.083333  0.083333  0.250000     96.000000
  0.250000  0.083333  0.250000    192.000000
  0.416667  0.083333  0.250000    192.000000
 -0.416667  0.083333  0.250000    192.000000
 -0.250000  0.083333  0.250000    192.000000
 -0.083333  0.083333  0.250000     96.000000
  0.250000  0.250000  0.250000     96.000000
  0.416667  0.250000  0.250000    192.000000
 -0.416667  0.250000  0.250000    192.000000
 -0.250000  0.250000  0.250000     96.000000
  0.416667  0.416667  0.250000     96.000000
 -0.416667  0.416667  0.250000     96.000000
  0.083333  0.083333  0.416667     96.000000
  0.250000  0.083333  0.416667    192.000000
  0.416667  0.083333  0.416667    192.000000
 -0.416667  0.083333  0.416667    192.000000
 -0.250000  0.083333  0.416667    192.000000
 -0.083333  0.083333  0.416667     96.000000
  0.250000  0.250000  0.416667     96.000000
  0.416667  0.250000  0.416667    192.000000
 -0.416667  0.250000  0.416667    192.000000
 -0.250000  0.250000  0.416667     96.000000
  0.416667  0.416667  0.416667     96.000000
 -0.416667  0.416667  0.416667     96.000000
 
 Following cartesian coordinates:
            Coordinates               Weight
  0.083333  0.144338  0.051031     96.000000
  0.250000  0.240563  0.051031    192.000000
  0.416667  0.336788  0.051031    192.000000
 -0.416667 -0.144338  0.051031    192.000000
 -0.250000 -0.048113  0.051031    192.000000
 -0.083333  0.048113  0.051031     96.000000
  0.250000  0.433013  0.051031     96.000000
  0.416667  0.529238  0.051031    192.000000
 -0.416667  0.048113  0.051031    192.000000
 -0.250000  0.144338  0.051031     96.000000
  0.416667  0.721688  0.051031     96.000000
 -0.416667  0.240563  0.051031     96.000000
  0.083333  0.144338  0.153093     96.000000
  0.250000  0.240563  0.153093    192.000000
  0.416667  0.336788  0.153093    192.000000
 -0.416667 -0.144338  0.153093    192.000000
 -0.250000 -0.048113  0.153093    192.000000
 -0.083333  0.048113  0.153093     96.000000
  0.250000  0.433013  0.153093     96.000000
  0.416667  0.529238  0.153093    192.000000
 -0.416667  0.048113  0.153093    192.000000
 -0.250000  0.144338  0.153093     96.000000
  0.416667  0.721688  0.153093     96.000000
 -0.416667  0.240563  0.153093     96.000000
  0.083333  0.144338  0.255156     96.000000
  0.250000  0.240563  0.255156    192.000000
  0.416667  0.336788  0.255156    192.000000
 -0.416667 -0.144338  0.255156    192.000000
 -0.250000 -0.048113  0.255156    192.000000
 -0.083333  0.048113  0.255156     96.000000
  0.250000  0.433013  0.255156     96.000000
  0.416667  0.529238  0.255156    192.000000
 -0.416667  0.048113  0.255156    192.000000
 -0.250000  0.144338  0.255156     96.000000
  0.416667  0.721688  0.255156     96.000000
 -0.416667  0.240563  0.255156     96.000000
 


--------------------------------------------------------------------------------------------------------




 Dimension of arrays:
   k-points           NKPTS =     36   k-points in BZ     NKDIM =     36   number of bands    NBANDS=      8
   number of dos      NEDOS =    301   number of ions     NIONS =      2
   non local maximal  LDIM  =      4   non local SUM 2l+1 LMDIM =      8
   total plane-waves  NPLWV =   9072
   max r-space proj   IRMAX =      1   max aug-charges    IRDMAX=  13925
   dimension x,y,z NGX =    18 NGY =   18 NGZ =   28
   dimension x,y,z NGXF=    36 NGYF=   36 NGZF=   56
   support grid    NGXF=    36 NGYF=   36 NGZF=   56
   ions per type =               2
 NGX,Y,Z   is equivalent  to a cutoff of  11.97, 11.97, 11.40 a.u.
 NGXF,Y,Z  is equivalent  to a cutoff of  23.94, 23.94, 22.80 a.u.


 I would recommend the setting:
   dimension x,y,z NGX =    17 NGY =   17 NGZ =   28
 SYSTEM =  Si beta-tin                             
 POSCAR =  Si HCP                                  

 Startparameter for this run:
   NWRITE =      2    write-flag & timer
   PREC   = accura    normal or accurate (medium, high low for compatibility)
   ISTART =      0    job   : 0-new  1-cont  2-samecut
   ICHARG =      2    charge: 1-file 2-atom 10-const
   ISPIN  =      1    spin polarized calculation?
   LNONCOLLINEAR =      F non collinear calculations
   LSORBIT =      F    spin-orbit coupling
   INIWAV =      1    electr: 0-lowe 1-rand  2-diag
   LASPH  =      F    aspherical Exc in radial PAW
   METAGGA=      F    non-selfconsistent MetaGGA calc.

 Electronic Relaxation 1
   ENCUT  =  450.0 eV  33.07 Ry    5.75 a.u.   4.32  4.32  7.06*2*pi/ulx,y,z
   ENINI  =  450.0     initial cutoff
   ENAUG  =  322.1 eV  augmentation charge cutoff
   NELM   =     60;   NELMIN=  2; NELMDL= -5     # of ELM steps 
   EDIFF  = 0.1E-04   stopping-criterion for ELM
   LREAL  =      F    real-space projection
   NLSPLINE    = F    spline interpolate recip. space projectors
   LCOMPAT=      F    compatible to vasp.4.4
   GGA_COMPAT  = T    GGA compatible to vasp.4.4-vasp.4.6
   LMAXPAW     = -100 max onsite density
   LMAXMIX     =    2 max onsite mixed and CHGCAR
   VOSKOWN=      0    Vosko Wilk Nusair interpolation
   ROPT   =    0.00000
 Ionic relaxation
   EDIFFG = -.1E-01   stopping-criterion for IOM
   NSW    =    100    number of steps for IOM
   NBLOCK =      1;   KBLOCK =    100    inner block; outer block 
   IBRION =      2    ionic relax: 0-MD 1-quasi-New 2-CG
   NFREE  =      1    steps in history (QN), initial steepest desc. (CG)
   ISIF   =      4    stress and relaxation
   IWAVPR =     11    prediction:  0-non 1-charg 2-wave 3-comb
   ISYM   =      2    0-nonsym 1-usesym 2-fastsym
   LCORR  =      T    Harris-Foulkes like correction to forces

   POTIM  = 0.5000    time-step for ionic-motion
   TEIN   =    0.0    initial temperature
   TEBEG  =    0.0;   TEEND  =   0.0 temperature during run
   SMASS  =  -3.00    Nose mass-parameter (am)
   estimated Nose-frequenzy (Omega)   =  0.10E-29 period in steps =****** mass=  -0.143E-27a.u.
   SCALEE = 1.0000    scale energy and forces
   NPACO  =    256;   APACO  = 16.0  distance and # of slots for P.C.
   PSTRESS=    0.0 pullay stress

  Mass of Ions in am
   POMASS =  28.09
  Ionic Valenz
   ZVAL   =   4.00
  Atomic Wigner-Seitz radii
   RWIGS  =  -1.00
  virtual crystal weights 
   VCA    =   1.00
   NELECT =       8.0000    total number of electrons
   NUPDOWN=      -1.0000    fix difference up-down

 DOS related values:
   EMIN   =  10.00;   EMAX   =-10.00  energy-range for DOS
   EFERMI =   0.00
   ISMEAR =     0;   SIGMA  =   0.10  broadening in eV -4-tet -1-fermi 0-gaus

 Electronic relaxation 2 (details)
   IALGO  =     38    algorithm
   LDIAG  =      T    sub-space diagonalisation (order eigenvalues)
   LSUBROT=      F    optimize rotation matrix (better conditioning)
   TURBO    =      0    0=normal 1=particle mesh
   IRESTART =      0    0=no restart 2=restart with 2 vectors
   NREBOOT  =      0    no. of reboots
   NMIN     =      0    reboot dimension
   EREF     =   0.00    reference energy to select bands
   IMIX   =      4    mixing-type and parameters
     AMIX     =   0.40;   BMIX     =  1.00
     AMIX_MAG =   1.60;   BMIX_MAG =  1.00
     AMIN     =   0.10
     WC   =   100.;   INIMIX=   1;  MIXPRE=   1;  MAXMIX= -45

 Intra band minimization:
   WEIMIN = 0.0010     energy-eigenvalue tresh-hold
   EBREAK =  0.31E-06  absolut break condition
   DEPER  =   0.30     relativ break condition  

   TIME   =   0.40     timestep for ELM

  volume/ion in A,a.u.               =      11.05        74.56
  Fermi-wavevector in a.u.,A,eV,Ry     =   1.166792  2.204917 18.523019  1.361404
  Thomas-Fermi vector in A             =   2.303301
 
 Write flags
   LWAVE  =      T    write WAVECAR
   LCHARG =      T    write CHGCAR
   LVTOT  =      F    write LOCPOT, total local potential
   LVHAR  =      F    write LOCPOT, Hartree potential only
   LELF   =      F    write electronic localiz. function (ELF)
   LORBIT =      0    0 simple, 1 ext, 2 COOP (PROOUT)


 Dipole corrections
   LMONO  =      F    monopole corrections only (constant potential shift)
   LDIPOL =      F    correct potential (dipole corrections)
   IDIPOL =      0    1-x, 2-y, 3-z, 4-all directions 
   EPSILON=  1.0000000 bulk dielectric constant

 Exchange correlation treatment:
   GGA     =    --    GGA type
   LEXCH   =     8    internal setting for exchange type
   VOSKOWN=      0    Vosko Wilk Nusair interpolation
   LHFCALC =     F    Hartree Fock is set to
   LHFONE  =     F    Hartree Fock one center treatment
   AEXX    =    0.0000 exact exchange contribution

 Linear response parameters
   LEPSILON=     F    determine dielectric tensor
   LRPA    =     F    only Hartree local field effects (RPA)
   LNABLA  =     F    use nabla operator in PAW spheres
   LVEL    =     F    velocity operator in full k-point grid
   LINTERFAST=   F  fast interpolation
   KINTER  =     0    interpolate to denser k-point grid
   CSHIFT  =0.1000    complex shift for real part using Kramers Kronig
   OMEGAMAX=  -1.0    maximum frequency
   DEG_THRESHOLD= 0.2000000E-02 threshold for treating states as degnerate
   RTIME   =    0.100 relaxation time in fs

 Orbital magnetization related:
   ORBITALMAG=     F  switch on orbital magnetization
   LCHIMAG   =     F  perturbation theory with respect to B field
   DQ        =  0.001000  dq finite difference perturbation B field



--------------------------------------------------------------------------------------------------------


 conjugate gradient relaxation of ions
 charge density and potential will be updated during run
 non-spin polarized calculation
 Variant of blocked Davidson
 Davidson routine will perform the subspace rotation
 perform sub-space diagonalisation
    after iterative eigenvector-optimisation
 modified Broyden-mixing scheme, WC =      100.0
 initial mixing is a Kerker type mixing with AMIX =  0.4000 and BMIX =      1.0000
 Hartree-type preconditioning will be used
 using additional bands            4
 reciprocal scheme for non local part
 use partial core corrections
 calculate Harris-corrections to forces 
   (improved forces if not selfconsistent)
 use gradient corrections 
 use of overlap-Matrix (Vanderbilt PP)
 Gauss-broadening in eV      SIGMA  =   0.10


--------------------------------------------------------------------------------------------------------


  energy-cutoff  :      450.00
  volume of cell :       22.10
      direct lattice vectors                 reciprocal lattice vectors
     2.500000000  0.000000000  0.000000000     0.400000000  0.230940108  0.000000000
    -1.250000000  2.165063509  0.000000000     0.000000000  0.461880215  0.000000000
     0.000000000  0.000000000  4.082475000     0.000000000  0.000000000  0.244949449

  length of vectors
     2.500000000  2.500000000  4.082475000     0.461880215  0.461880215  0.244949449


 
 k-points in units of 2pi/SCALE and weight: K-Points                                
   0.08333333  0.14433757  0.05103114       0.019
   0.25000000  0.24056261  0.05103114       0.037
   0.41666667  0.33678766  0.05103114       0.037
  -0.41666667 -0.14433757  0.05103114       0.037
  -0.25000000 -0.04811252  0.05103114       0.037
  -0.08333333  0.04811252  0.05103114       0.019
   0.25000000  0.43301270  0.05103114       0.019
   0.41666667  0.52923775  0.05103114       0.037
  -0.41666667  0.04811252  0.05103114       0.037
  -0.25000000  0.14433757  0.05103114       0.019
   0.41666667  0.72168784  0.05103114       0.019
  -0.41666667  0.24056261  0.05103114       0.019
   0.08333333  0.14433757  0.15309341       0.019
   0.25000000  0.24056261  0.15309341       0.037
   0.41666667  0.33678766  0.15309341       0.037
  -0.41666667 -0.14433757  0.15309341       0.037
  -0.25000000 -0.04811252  0.15309341       0.037
  -0.08333333  0.04811252  0.15309341       0.019
   0.25000000  0.43301270  0.15309341       0.019
   0.41666667  0.52923775  0.15309341       0.037
  -0.41666667  0.04811252  0.15309341       0.037
  -0.25000000  0.14433757  0.15309341       0.019
   0.41666667  0.72168784  0.15309341       0.019
  -0.41666667  0.24056261  0.15309341       0.019
   0.08333333  0.14433757  0.25515568       0.019
   0.25000000  0.24056261  0.25515568       0.037
   0.41666667  0.33678766  0.25515568       0.037
  -0.41666667 -0.14433757  0.25515568       0.037
  -0.25000000 -0.04811252  0.25515568       0.037
  -0.08333333  0.04811252  0.25515568       0.019
   0.25000000  0.43301270  0.25515568       0.019
   0.41666667  0.52923775  0.25515568       0.037
  -0.41666667  0.04811252  0.25515568       0.037
  -0.25000000  0.14433757  0.25515568       0.019
   0.41666667  0.72168784  0.25515568       0.019
  -0.41666667  0.24056261  0.25515568       0.019
 
 k-points in reciprocal lattice and weights: K-Points                                
   0.08333333  0.08333333  0.08333333       0.019
   0.25000000  0.08333333  0.08333333       0.037
   0.41666667  0.08333333  0.08333333       0.037
  -0.41666667  0.08333333  0.08333333       0.037
  -0.25000000  0.08333333  0.08333333       0.037
  -0.08333333  0.08333333  0.08333333       0.019
   0.25000000  0.25000000  0.08333333       0.019
   0.41666667  0.25000000  0.08333333       0.037
  -0.41666667  0.25000000  0.08333333       0.037
  -0.25000000  0.25000000  0.08333333       0.019
   0.41666667  0.41666667  0.08333333       0.019
  -0.41666667  0.41666667  0.08333333       0.019
   0.08333333  0.08333333  0.25000000       0.019
   0.25000000  0.08333333  0.25000000       0.037
   0.41666667  0.08333333  0.25000000       0.037
  -0.41666667  0.08333333  0.25000000       0.037
  -0.25000000  0.08333333  0.25000000       0.037
  -0.08333333  0.08333333  0.25000000       0.019
   0.25000000  0.25000000  0.25000000       0.019
   0.41666667  0.25000000  0.25000000       0.037
  -0.41666667  0.25000000  0.25000000       0.037
  -0.25000000  0.25000000  0.25000000       0.019
   0.41666667  0.41666667  0.25000000       0.019
  -0.41666667  0.41666667  0.25000000       0.019
   0.08333333  0.08333333  0.41666667       0.019
   0.25000000  0.08333333  0.41666667       0.037
   0.41666667  0.08333333  0.41666667       0.037
  -0.41666667  0.08333333  0.41666667       0.037
  -0.25000000  0.08333333  0.41666667       0.037
  -0.08333333  0.08333333  0.41666667       0.019
   0.25000000  0.25000000  0.41666667       0.019
   0.41666667  0.25000000  0.41666667       0.037
  -0.41666667  0.25000000  0.41666667       0.037
  -0.25000000  0.25000000  0.41666667       0.019
   0.41666667  0.41666667  0.41666667       0.019
  -0.41666667  0.41666667  0.41666667       0.019
 
 position of ions in fractional coordinates (direct lattice) 
   0.00000000  0.00000000  0.00000000
   0.33333333  0.66666667  0.50000000
 
 position of ions in cartesian coordinates  (Angst):
   0.00000000  0.00000000  0.00000000
  -0.00000000  1.44337567  2.04123750
 


--------------------------------------------------------------------------------------------------------


 k-point  1 :   0.0833 0.0833 0.0833  plane waves:     484
 k-point  2 :   0.2500 0.0833 0.0833  plane waves:     476
 k-point  3 :   0.4167 0.0833 0.0833  plane waves:     477
 k-point  4 :  -0.4167 0.0833 0.0833  plane waves:     473
 k-point  5 :  -0.2500 0.0833 0.0833  plane waves:     477
 k-point  6 :  -0.0833 0.0833 0.0833  plane waves:     492
 k-point  7 :   0.2500 0.2500 0.0833  plane waves:     481
 k-point  8 :   0.4167 0.2500 0.0833  plane waves:     476
 k-point  9 :  -0.4167 0.2500 0.0833  plane waves:     481
 k-point 10 :  -0.2500 0.2500 0.0833  plane waves:     477
 k-point 11 :   0.4167 0.4167 0.0833  plane waves:     475
 k-point 12 :  -0.4167 0.4167 0.0833  plane waves:     475
 k-point 13 :   0.0833 0.0833 0.2500  plane waves:     484
 k-point 14 :   0.2500 0.0833 0.2500  plane waves:     475
 k-point 15 :   0.4167 0.0833 0.2500  plane waves:     476
 k-point 16 :  -0.4167 0.0833 0.2500  plane waves:     478
 k-point 17 :  -0.2500 0.0833 0.2500  plane waves:     483
 k-point 18 :  -0.0833 0.0833 0.2500  plane waves:     493
 k-point 19 :   0.2500 0.2500 0.2500  plane waves:     479
 k-point 20 :   0.4167 0.2500 0.2500  plane waves:     481
 k-point 21 :  -0.4167 0.2500 0.2500  plane waves:     480
 k-point 22 :  -0.2500 0.2500 0.2500  plane waves:     481
 k-point 23 :   0.4167 0.4167 0.2500  plane waves:     483
 k-point 24 :  -0.4167 0.4167 0.2500  plane waves:     471
 k-point 25 :   0.0833 0.0833 0.4167  plane waves:     484
 k-point 26 :   0.2500 0.0833 0.4167  plane waves:     479
 k-point 27 :   0.4167 0.0833 0.4167  plane waves:     483
 k-point 28 :  -0.4167 0.0833 0.4167  plane waves:     479
 k-point 29 :  -0.2500 0.0833 0.4167  plane waves:     481
 k-point 30 :  -0.0833 0.0833 0.4167  plane waves:     485
 k-point 31 :   0.2500 0.2500 0.4167  plane waves:     480
 k-point 32 :   0.4167 0.2500 0.4167  plane waves:     478
 k-point 33 :  -0.4167 0.2500 0.4167  plane waves:     475
 k-point 34 :  -0.2500 0.2500 0.4167  plane waves:     479
 k-point 35 :   0.4167 0.4167 0.4167  plane waves:     486
 k-point 36 :  -0.4167 0.4167 0.4167  plane waves:     477

 maximum and minimum number of plane-waves per node :       493      471

 maximum number of plane-waves:       493
 maximum index in each direction: 
   IXMAX=    4   IYMAX=    4   IZMAX=    6
   IXMIN=   -4   IYMIN=   -4   IZMIN=   -7

 NGX is ok and might be reduce to  18
 NGY is ok and might be reduce to  18
 NGZ is ok and might be reduce to  28

 serial   3D FFT for wavefunctions
 parallel 3D FFT for charge:
    minimum data exchange during FFTs selected (reduces bandwidth)


 total amount of memory used by VASP on root node    33681. kBytes
========================================================================

   base      :      30000. kBytes
   nonl-proj :       1158. kBytes
   fftplans  :        669. kBytes
   grid      :       1259. kBytes
   one-center:          6. kBytes
   wavefun   :        589. kBytes
 
     INWAV:  cpu time    0.0000: real time    0.0000
 Broyden mixing: mesh for mixing (old mesh)
   NGX =  9   NGY =  9   NGZ = 15
  (NGX  = 36   NGY  = 36   NGZ  = 56)
  gives a total of   1215 points

 initial charge density was supplied:
 charge density of overlapping atoms calculated
 number of electron       8.0000000 magnetization 
 keeping initial charge density in first step


--------------------------------------------------------------------------------------------------------


 Maximum index for augmentation-charges         3319 (set IRDMAX)


--------------------------------------------------------------------------------------------------------


 First call to EWALD:  gamma=   0.632
 Maximum number of real-space cells 3x 3x 2
 Maximum number of reciprocal cells 3x 3x 4

 FEWALD executed in parallel
    FEWALD:  cpu time    0.0020: real time    0.0010


----------------------------------------- Iteration    1(   1)  ---------------------------------------


    POTLOK:  cpu time    0.0350: real time    0.0209
    SETDIJ:  cpu time    0.0050: real time    0.0033
     EDDAV:  cpu time    1.2278: real time    0.7751
       DOS:  cpu time    0.0020: real time    0.0012
    --------------------------------------------
      LOOP:  cpu time    1.2738: real time    0.8024

 eigenvalue-minimisations  :   592
 total energy-change (2. order) : 0.3716686E+01  (-0.3436282E+03)
 number of electron       8.0000000 magnetization 
 augmentation part        8.0000000 magnetization 

 Free energy of the ion-electron system (eV)
  ---------------------------------------------------
  alpha Z        PSCENC =         6.09368938
  Ewald energy   TEWEN  =      -298.76547367
  -Hartree energ DENC   =        -0.45966938
  -exchange      EXHF   =         0.00000000
  -V(xc)+E(xc)   XCENC  =       -16.07396442
  PAW double counting   =       176.24759923     -141.06103558
  entropy T*S    EENTRO =        -0.00441283
  eigenvalues    EBANDS =        71.60802573
  atomic energy  EATOM  =       206.13192747
  Solvation  Ediel_sol  =         0.00000000
  ---------------------------------------------------
  free energy    TOTEN  =         3.71668594 eV

  energy without entropy =        3.72109877  energy(sigma->0) =        3.71889236


--------------------------------------------------------------------------------------------------------




----------------------------------------- Iteration    1(   2)  ---------------------------------------


     EDDAV:  cpu time    1.7417: real time    1.0920
       DOS:  cpu time    0.0010: real time    0.0007
    --------------------------------------------
      LOOP:  cpu time    1.7447: real time    1.0953

 eigenvalue-minimisations  :   872
 total energy-change (2. order) :-0.1284921E+02  (-0.1232149E+02)
 number of electron       8.0000000 magnetization 
 augmentation part        8.0000000 magnetization 

 Free energy of the ion-electron system (eV)
  ---------------------------------------------------
  alpha Z        PSCENC =         6.09368938
  Ewald energy   TEWEN  =      -298.76547367
  -Hartree energ DENC   =        -0.45966938
  -exchange      EXHF   =         0.00000000
  -V(xc)+E(xc)   XCENC  =       -16.07396442
  PAW double counting   =       176.24759923     -141.06103558
  entropy T*S    EENTRO =        -0.00400888
  eigenvalues    EBANDS =        58.75841428
  atomic energy  EATOM  =       206.13192747
  Solvation  Ediel_sol  =         0.00000000
  ---------------------------------------------------
  free energy    TOTEN  =        -9.13252157 eV

  energy without entropy =       -9.12851268  energy(sigma->0) =       -9.13051713


--------------------------------------------------------------------------------------------------------




----------------------------------------- Iteration    1(   3)  ---------------------------------------


     EDDAV:  cpu time    1.4218: real time    0.9242
       DOS:  cpu time    0.0020: real time    0.0008
    --------------------------------------------
      LOOP:  cpu time    1.4348: real time    0.9316

 eigenvalue-minimisations  :   696
 total energy-change (2. order) :-0.1134520E+00  (-0.1133978E+00)
 number of electron       8.0000000 magnetization 
 augmentation part        8.0000000 magnetization 

 Free energy of the ion-electron system (eV)
  ---------------------------------------------------
  alpha Z        PSCENC =         6.09368938
  Ewald energy   TEWEN  =      -298.76547367
  -Hartree energ DENC   =        -0.45966938
  -exchange      EXHF   =         0.00000000
  -V(xc)+E(xc)   XCENC  =       -16.07396442
  PAW double counting   =       176.24759923     -141.06103558
  entropy T*S    EENTRO =        -0.00445545
  eigenvalues    EBANDS =        58.64540887
  atomic energy  EATOM  =       206.13192747
  Solvation  Ediel_sol  =         0.00000000
  ---------------------------------------------------
  free energy    TOTEN  =        -9.24597355 eV

  energy without entropy =       -9.24151809  energy(sigma->0) =       -9.24374582


--------------------------------------------------------------------------------------------------------




----------------------------------------- Iteration    1(   4)  ---------------------------------------


     EDDAV:  cpu time    1.8617: real time    1.1563
       DOS:  cpu time    0.0020: real time    0.0007
    --------------------------------------------
      LOOP:  cpu time    1.8657: real time    1.1590

 eigenvalue-minimisations  :   880
 total energy-change (2. order) :-0.2376235E-03  (-0.2376233E-03)
 number of electron       8.0000000 magnetization 
 augmentation part        8.0000000 magnetization 

 Free energy of the ion-electron system (eV)
  ---------------------------------------------------
  alpha Z        PSCENC =         6.09368938
  Ewald energy   TEWEN  =      -298.76547367
  -Hartree energ DENC   =        -0.45966938
  -exchange      EXHF   =         0.00000000
  -V(xc)+E(xc)   XCENC  =       -16.07396442
  PAW double counting   =       176.24759923     -141.06103558
  entropy T*S    EENTRO =        -0.00445676
  eigenvalues    EBANDS =        58.64517255
  atomic energy  EATOM  =       206.13192747
  Solvation  Ediel_sol  =         0.00000000
  ---------------------------------------------------
  free energy    TOTEN  =        -9.24621117 eV

  energy without entropy =       -9.24175441  energy(sigma->0) =       -9.24398279


--------------------------------------------------------------------------------------------------------




----------------------------------------- Iteration    1(   5)  ---------------------------------------


     EDDAV:  cpu time    1.8357: real time    1.1576
       DOS:  cpu time    0.0020: real time    0.0008
    CHARGE:  cpu time    0.0140: real time    0.0072
    MIXING:  cpu time    0.0010: real time    0.0006
    --------------------------------------------
      LOOP:  cpu time    1.8547: real time    1.1681

 eigenvalue-minimisations  :   752
 total energy-change (2. order) :-0.2130691E-06  (-0.2125493E-06)
 number of electron       8.0000000 magnetization 
 augmentation part       -0.4638064 magnetization 

 Broyden mixing:
  rms(total) = 0.63318E+00    rms(broyden)= 0.63318E+00
  rms(prec ) = 0.68478E+00
  weight for this iteration     100.00

 Free energy of the ion-electron system (eV)
  ---------------------------------------------------
  alpha Z        PSCENC =         6.09368938
  Ewald energy   TEWEN  =      -298.76547367
  -Hartree energ DENC   =        -0.45966938
  -exchange      EXHF   =         0.00000000
  -V(xc)+E(xc)   XCENC  =       -16.07396442
  PAW double counting   =       176.24759923     -141.06103558
  entropy T*S    EENTRO =        -0.00445677
  eigenvalues    EBANDS =        58.64517235
  atomic energy  EATOM  =       206.13192747
  Solvation  Ediel_sol  =         0.00000000
  ---------------------------------------------------
  free energy    TOTEN  =        -9.24621138 eV

  energy without entropy =       -9.24175461  energy(sigma->0) =       -9.24398300


--------------------------------------------------------------------------------------------------------




----------------------------------------- Iteration    1(   6)  ---------------------------------------


    POTLOK:  cpu time    0.0320: real time    0.0195
    SETDIJ:  cpu time    0.0040: real time    0.0022
     EDDAV:  cpu time    1.2598: real time    0.7676
       DOS:  cpu time    0.0010: real time    0.0009
    CHARGE:  cpu time    0.0290: real time    0.0193
    MIXING:  cpu time    0.0020: real time    0.0008
    --------------------------------------------
      LOOP:  cpu time    1.3338: real time    0.8130

 eigenvalue-minimisations  :   680
 total energy-change (2. order) : 0.4105209E-01  (-0.6478515E-03)
 number of electron       8.0000000 magnetization 
 augmentation part       -0.4674183 magnetization 

 Broyden mixing:
  rms(total) = 0.35439E+00    rms(broyden)= 0.35439E+00
  rms(prec ) = 0.38797E+00
  weight for this iteration     100.00

 eigenvalues of (default mixing * dielectric matrix)
  average eigenvalue GAMMA=   2.2644
  2.2644

 Free energy of the ion-electron system (eV)
  ---------------------------------------------------
  alpha Z        PSCENC =         6.09368938
  Ewald energy   TEWEN  =      -298.76547367
  -Hartree energ DENC   =        -0.44734966
  -exchange      EXHF   =         0.00000000
  -V(xc)+E(xc)   XCENC  =       -15.96917831
  PAW double counting   =       495.93489875     -460.80677714
  entropy T*S    EENTRO =        -0.00431461
  eigenvalues    EBANDS =        58.62741851
  atomic energy  EATOM  =       206.13192747
  Solvation  Ediel_sol  =         0.00000000
  ---------------------------------------------------
  free energy    TOTEN  =        -9.20515929 eV

  energy without entropy =       -9.20084467  energy(sigma->0) =       -9.20300198


--------------------------------------------------------------------------------------------------------




----------------------------------------- Iteration    1(   7)  ---------------------------------------


    POTLOK:  cpu time    0.0380: real time    0.0261
    SETDIJ:  cpu time    0.0030: real time    0.0017
     EDDAV:  cpu time    1.6897: real time    1.0927
       DOS:  cpu time    0.0060: real time    0.0047
    CHARGE:  cpu time    0.0170: real time    0.0116
    MIXING:  cpu time    0.0020: real time    0.0008
    --------------------------------------------
      LOOP:  cpu time    1.7597: real time    1.1404

 eigenvalue-minimisations  :   704
 total energy-change (2. order) : 0.2470671E-01  (-0.1351847E-02)
 number of electron       8.0000000 magnetization 
 augmentation part       -0.4727561 magnetization 

 Broyden mixing:
  rms(total) = 0.20119E-01    rms(broyden)= 0.20119E-01
  rms(prec ) = 0.25143E-01
  weight for this iteration     100.00

 eigenvalues of (default mixing * dielectric matrix)
  average eigenvalue GAMMA=   2.5261
  2.5261  2.5261

 Free energy of the ion-electron system (eV)
  ---------------------------------------------------
  alpha Z        PSCENC =         6.09368938
  Ewald energy   TEWEN  =      -298.76547367
  -Hartree energ DENC   =        -0.49524372
  -exchange      EXHF   =         0.00000000
  -V(xc)+E(xc)   XCENC  =       -15.80939941
  PAW double counting   =      1198.25854980    -1163.21999322
  entropy T*S    EENTRO =        -0.00412169
  eigenvalues    EBANDS =        58.62961248
  atomic energy  EATOM  =       206.13192747
  Solvation  Ediel_sol  =         0.00000000
  ---------------------------------------------------
  free energy    TOTEN  =        -9.18045258 eV

  energy without entropy =       -9.17633089  energy(sigma->0) =       -9.17839173


--------------------------------------------------------------------------------------------------------




----------------------------------------- Iteration    1(   8)  ---------------------------------------


    POTLOK:  cpu time    0.0330: real time    0.0229
    SETDIJ:  cpu time    0.0030: real time    0.0019
     EDDAV:  cpu time    1.9307: real time    1.2293
       DOS:  cpu time    0.0120: real time    0.0060
    CHARGE:  cpu time    0.0180: real time    0.0141
    MIXING:  cpu time    0.0030: real time    0.0014
    --------------------------------------------
      LOOP:  cpu time    2.0047: real time    1.2786

 eigenvalue-minimisations  :   928
 total energy-change (2. order) : 0.2395280E-03  (-0.1235850E-04)
 number of electron       8.0000000 magnetization 
 augmentation part       -0.4731241 magnetization 

 Broyden mixing:
  rms(total) = 0.23646E-02    rms(broyden)= 0.23646E-02
  rms(prec ) = 0.32813E-02
  weight for this iteration     100.00

 eigenvalues of (default mixing * dielectric matrix)
  average eigenvalue GAMMA=   2.0247
  0.9786  2.4204  2.6751

 Free energy of the ion-electron system (eV)
  ---------------------------------------------------
  alpha Z        PSCENC =         6.09368938
  Ewald energy   TEWEN  =      -298.76547367
  -Hartree energ DENC   =        -0.50860952
  -exchange      EXHF   =         0.00000000
  -V(xc)+E(xc)   XCENC  =       -15.79019215
  PAW double counting   =      1166.17430161    -1131.15324481
  entropy T*S    EENTRO =        -0.00410955
  eigenvalues    EBANDS =        58.64149817
  atomic energy  EATOM  =       206.13192747
  Solvation  Ediel_sol  =         0.00000000
  ---------------------------------------------------
  free energy    TOTEN  =        -9.18021305 eV

  energy without entropy =       -9.17610351  energy(sigma->0) =       -9.17815828


--------------------------------------------------------------------------------------------------------




----------------------------------------- Iteration    1(   9)  ---------------------------------------


    POTLOK:  cpu time    0.0360: real time    0.0242
    SETDIJ:  cpu time    0.0020: real time    0.0019
     EDDAV:  cpu time    1.4798: real time    0.9396
       DOS:  cpu time    0.0020: real time    0.0010
    --------------------------------------------
      LOOP:  cpu time    1.5248: real time    0.9693

 eigenvalue-minimisations  :   472
 total energy-change (2. order) : 0.1953577E-05  (-0.2920063E-06)
 number of electron       8.0000000 magnetization 
 augmentation part       -0.4731241 magnetization 

 Free energy of the ion-electron system (eV)
  ---------------------------------------------------
  alpha Z        PSCENC =         6.09368938
  Ewald energy   TEWEN  =      -298.76547367
  -Hartree energ DENC   =        -0.51067288
  -exchange      EXHF   =         0.00000000
  -V(xc)+E(xc)   XCENC  =       -15.78706501
  PAW double counting   =      1169.02549244    -1134.00653424
  entropy T*S    EENTRO =        -0.00410677
  eigenvalues    EBANDS =        58.64253216
  atomic energy  EATOM  =       206.13192747
  Solvation  Ediel_sol  =         0.00000000
  ---------------------------------------------------
  free energy    TOTEN  =        -9.18021110 eV

  energy without entropy =       -9.17610433  energy(sigma->0) =       -9.17815771


--------------------------------------------------------------------------------------------------------




 average (electrostatic) potential at core
  the test charge radii are     0.9892
  (the norm of the test charge is              1.0000)
       1 -75.8863       2 -75.8863
 
 
 
 E-fermi :  14.1219     XC(G=0): -12.3189     alpha+bet :-21.7083


 k-point     1 :       0.0833    0.0833    0.0833
  band No.  band energies     occupation 
      1      -2.3525      2.00000
      2       4.7368      2.00000
      3       7.5232      2.00000
      4      19.5816      0.00000
      5      19.6090      0.00000
      6      25.5976      0.00000
      7      25.7601      0.00000
      8      25.9083      0.00000

 k-point     2 :       0.2500    0.0833    0.0833
  band No.  band energies     occupation 
      1      -0.2225      2.00000
      2       6.7555      2.00000
      3       9.4386      2.00000
      4      12.3664      2.00000
      5      16.8283      0.00000
      6      18.9890      0.00000
      7      21.3363      0.00000
      8      23.7110      0.00000

 k-point     3 :       0.4167    0.0833    0.0833
  band No.  band energies     occupation 
      1       3.5356      2.00000
      2       5.9894      2.00000
      3      10.4504      2.00000
      4      12.5180      2.00000
      5      13.5222      2.00000
      6      15.2579      0.00000
      7      16.5717      0.00000
      8      22.5079      0.00000

 k-point     4 :      -0.4167    0.0833    0.0833
  band No.  band energies     occupation 
      1       1.4614      2.00000
      2       8.0868      2.00000
      3       9.1267      2.00000
      4      11.3023      2.00000
      5      15.4083      0.00000
      6      16.5057      0.00000
      7      18.5315      0.00000
      8      22.9007      0.00000

 k-point     5 :      -0.2500    0.0833    0.0833
  band No.  band energies     occupation 
      1      -1.4972      2.00000
      2       5.5520      2.00000
      3       8.3172      2.00000
      4      15.8164      0.00000
      5      18.0604      0.00000
      6      22.2739      0.00000
      7      24.0407      0.00000
      8      25.2040      0.00000

 k-point     6 :      -0.0833    0.0833    0.0833
  band No.  band energies     occupation 
      1      -2.7818      2.00000
      2       4.3267      2.00000
      3       7.1207      2.00000
      4      21.4270      0.00000
      5      22.8370      0.00000
      6      24.5648      0.00000
      7      26.6386      0.00000
      8      27.3005      0.00000

 k-point     7 :       0.2500    0.2500    0.0833
  band No.  band energies     occupation 
      1       2.7130      2.00000
      2       9.0660      2.00000
      3      10.1957      2.00000
      4      10.3867      2.00000
      5      12.6398      2.00000
      6      16.6309      0.00000
      7      17.3517      0.00000
      8      19.9164      0.00000

 k-point     8 :       0.4167    0.2500    0.0833
  band No.  band energies     occupation 
      1       4.7696      2.00000
      2       7.1940      2.00000
      3       9.5495      2.00000
      4      11.7752      2.00000
      5      13.6401      2.00000
      6      14.8719      0.00000
      7      16.4690      0.00000
      8      17.7898      0.00000

 k-point     9 :      -0.4167    0.2500    0.0833
  band No.  band energies     occupation 
      1       1.0425      2.00000
      2       7.9163      2.00000
      3      10.2594      2.00000
      4      11.4790      2.00000
      5      13.4935      2.00000
      6      17.7783      0.00000
      7      19.6581      0.00000
      8      21.1312      0.00000

 k-point    10 :      -0.2500    0.2500    0.0833
  band No.  band energies     occupation 
      1      -1.0712      2.00000
      2       5.9560      2.00000
      3       8.7026      2.00000
      4      13.8888      1.99902
      5      19.9287      0.00000
      6      20.1870      0.00000
      7      21.9519      0.00000
      8      23.3258      0.00000

 k-point    11 :       0.4167    0.4167    0.0833
  band No.  band energies     occupation 
      1       5.0484      2.00000
      2       5.3163      2.00000
      3      11.5142      2.00000
      4      12.2014      2.00000
      5      12.6008      2.00000
      6      14.8511      0.00000
      7      15.6025      0.00000
      8      19.6684      0.00000

 k-point    12 :      -0.4167    0.4167    0.0833
  band No.  band energies     occupation 
      1       2.2955      2.00000
      2       7.1336      2.00000
      3       9.3386      2.00000
      4      11.9609      2.00000
      5      14.2396      0.09591
      6      16.7282      0.00000
      7      18.4756      0.00000
      8      20.9857      0.00000

 k-point    13 :       0.0833    0.0833    0.2500
  band No.  band energies     occupation 
      1      -1.8704      2.00000
      2       2.4087      2.00000
      3      10.6855      2.00000
      4      19.8851      0.00000
      5      19.9862      0.00000
      6      22.5041      0.00000
      7      23.8313      0.00000
      8      24.0975      0.00000

 k-point    14 :       0.2500    0.0833    0.2500
  band No.  band energies     occupation 
      1       0.2536      2.00000
      2       4.4726      2.00000
      3      12.0793      2.00000
      4      13.2120      2.00000
      5      16.4489      0.00000
      6      17.7116      0.00000
      7      21.2648      0.00000
      8      23.8181      0.00000

 k-point    15 :       0.4167    0.0833    0.2500
  band No.  band energies     occupation 
      1       3.9964      2.00000
      2       6.3751      2.00000
      3       8.3280      2.00000
      4      10.6365      2.00000
      5      15.6817      0.00000
      6      16.8447      0.00000
      7      18.6737      0.00000
      8      20.6066      0.00000

 k-point    16 :      -0.4167    0.0833    0.2500
  band No.  band energies     occupation 
      1       1.9321      2.00000
      2       6.0709      2.00000
      3       9.4210      2.00000
      4      13.1898      2.00000
      5      14.5106      0.00000
      6      16.8213      0.00000
      7      20.3021      0.00000
      8      21.8019      0.00000

 k-point    17 :      -0.2500    0.0833    0.2500
  band No.  band energies     occupation 
      1      -1.0175      2.00000
      2       3.2391      2.00000
      3      11.4363      2.00000
      4      16.2406      0.00000
      5      18.4021      0.00000
      6      20.2441      0.00000
      7      22.3716      0.00000
      8      23.3731      0.00000

 k-point    18 :      -0.0833    0.0833    0.2500
  band No.  band energies     occupation 
      1      -2.2986      2.00000
      2       1.9915      2.00000
      3      10.2978      2.00000
      4      21.4214      0.00000
      5      22.3666      0.00000
      6      23.2394      0.00000
      7      25.1424      0.00000
      8      26.2332      0.00000

 k-point    19 :       0.2500    0.2500    0.2500
  band No.  band energies     occupation 
      1       3.1791      2.00000
      2       7.2395      2.00000
      3      10.5808      2.00000
      4      10.6235      2.00000
      5      14.1985      0.27846
      6      14.6682      0.00000
      7      16.5598      0.00000
      8      22.5291      0.00000

 k-point    20 :       0.4167    0.2500    0.2500
  band No.  band energies     occupation 
      1       5.2234      2.00000
      2       7.5580      2.00000
      3       9.2949      2.00000
      4      10.3658      2.00000
      5      12.0066      2.00000
      6      14.2015      0.26045
      7      18.0161      0.00000
      8      20.2295      0.00000

 k-point    21 :      -0.4167    0.2500    0.2500
  band No.  band energies     occupation 
      1       1.5146      2.00000
      2       5.6869      2.00000
      3      11.3276      2.00000
      4      13.3739      2.00000
      5      14.0755      1.48831
      6      15.9702      0.00000
      7      18.0732      0.00000
      8      23.3828      0.00000

 k-point    22 :      -0.2500    0.2500    0.2500
  band No.  band energies     occupation 
      1      -0.5927      2.00000
      2       3.6519      2.00000
      3      11.7649      2.00000
      4      14.3699      0.00045
      5      18.1976      0.00000
      6      20.3379      0.00000
      7      22.0720      0.00000
      8      24.0294      0.00000

 k-point    23 :       0.4167    0.4167    0.2500
  band No.  band energies     occupation 
      1       5.4966      2.00000
      2       5.7552      2.00000
      3       9.6589      2.00000
      4      10.0005      2.00000
      5      13.0804      2.00000
      6      16.5140      0.00000
      7      18.2157      0.00000
      8      18.9000      0.00000

 k-point    24 :      -0.4167    0.4167    0.2500
  band No.  band energies     occupation 
      1       2.7629      2.00000
      2       6.7154      2.00000
      3       7.9938      2.00000
      4      11.7939      2.00000
      5      15.2222      0.00000
      6      18.8853      0.00000
      7      19.4578      0.00000
      8      21.4794      0.00000

 k-point    25 :       0.0833    0.0833    0.4167
  band No.  band energies     occupation 
      1      -0.9103      2.00000
      2       0.5200      2.00000
      3      14.2227      0.15383
      4      18.0040      0.00000
      5      20.7446      0.00000
      6      21.0358      0.00000
      7      22.3297      0.00000
      8      22.5390      0.00000

 k-point    26 :       0.2500    0.0833    0.4167
  band No.  band energies     occupation 
      1       1.2014      2.00000
      2       2.6124      2.00000
      3      13.4043      2.00000
      4      14.6308      0.00000
      5      16.3675      0.00000
      6      18.2195      0.00000
      7      19.6451      0.00000
      8      20.7332      0.00000

 k-point    27 :       0.4167    0.0833    0.4167
  band No.  band energies     occupation 
      1       4.9039      2.00000
      2       6.1566      2.00000
      3       7.6452      2.00000
      4       8.8770      2.00000
      5      16.9499      0.00000
      6      18.1028      0.00000
      7      20.2065      0.00000
      8      22.1539      0.00000

 k-point    28 :      -0.4167    0.0833    0.4167
  band No.  band energies     occupation 
      1       2.8683      2.00000
      2       4.2580      2.00000
      3      10.3063      2.00000
      4      11.6283      2.00000
      5      17.0426      0.00000
      6      17.9311      0.00000
      7      19.2473      0.00000
      8      21.8425      0.00000

 k-point    29 :      -0.2500    0.0833    0.4167
  band No.  band energies     occupation 
      1      -0.0622      2.00000
      2       1.3607      2.00000
      3      14.8496      0.00000
      4      16.9734      0.00000
      5      18.2564      0.00000
      6      18.6725      0.00000
      7      20.2465      0.00000
      8      21.0199      0.00000

 k-point    30 :      -0.0833    0.0833    0.4167
  band No.  band energies     occupation 
      1      -1.3360      2.00000
      2       0.0978      2.00000
      3      13.8633      1.99974
      4      17.7523      0.00000
      5      22.7556      0.00000
      6      23.9096      0.00000
      7      24.0434      0.00000
      8      25.2438      0.00000

 k-point    31 :       0.2500    0.2500    0.4167
  band No.  band energies     occupation 
      1       4.1049      2.00000
      2       5.4743      2.00000
      3      11.3578      2.00000
      4      11.4020      2.00000
      5      13.0261      2.00000
      6      13.0335      2.00000
      7      19.4693      0.00000
      8      22.9771      0.00000

 k-point    32 :       0.4167    0.2500    0.4167
  band No.  band energies     occupation 
      1       6.1126      2.00000
      2       7.3171      2.00000
      3       8.8446      2.00000
      4       9.9386      2.00000
      5      11.3894      2.00000
      6      12.5664      2.00000
      7      21.2686      0.00000
      8      23.2587      0.00000

 k-point    33 :      -0.4167    0.2500    0.4167
  band No.  band energies     occupation 
      1       2.4543      2.00000
      2       3.8513      2.00000
      3      12.2499      2.00000
      4      13.4547      2.00000
      5      14.7433      0.00000
      6      15.8644      0.00000
      7      18.2279      0.00000
      8      21.6545      0.00000

 k-point    34 :      -0.2500    0.2500    0.4167
  band No.  band energies     occupation 
      1       0.3602      2.00000
      2       1.7793      2.00000
      3      14.6478      0.00000
      4      15.5331      0.00000
      5      16.7499      0.00000
      6      19.3868      0.00000
      7      21.1575      0.00000
      8      22.3885      0.00000

 k-point    35 :       0.4167    0.4167    0.4167
  band No.  band energies     occupation 
      1       6.3328      2.00000
      2       6.5415      2.00000
      3       8.0502      2.00000
      4       8.2726      2.00000
      5      13.9633      1.97506
      6      15.2368      0.00000
      7      21.4305      0.00000
      8      21.8012      0.00000

 k-point    36 :      -0.4167    0.4167    0.4167
  band No.  band energies     occupation 
      1       3.6908      2.00000
      2       5.0578      2.00000
      3       8.7311      2.00000
      4      10.0579      2.00000
      5      18.4761      0.00000
      6      19.7059      0.00000
      7      20.9398      0.00000
      8      21.0078      0.00000


--------------------------------------------------------------------------------------------------------


 soft charge-density along one line, spin component           1
         0         1         2         3         4         5         6         7         8         9
 total charge-density along one line
 
 pseudopotential strength for first ion, spin component:           1
 17.527  24.448   0.000   0.000  -0.000   0.000   0.000  -0.000
 24.448  34.107   0.000   0.000  -0.000   0.000   0.000  -0.000
  0.000   0.000   4.040  -0.000   0.000   7.522  -0.000   0.000
  0.000   0.000  -0.000   4.040  -0.000  -0.000   7.522  -0.000
 -0.000  -0.000   0.000  -0.000   4.040   0.000  -0.000   7.522
  0.000   0.000   7.522  -0.000   0.000  14.017  -0.000   0.000
  0.000   0.000  -0.000   7.522  -0.000  -0.000  14.017  -0.000
 -0.000  -0.000   0.000  -0.000   7.522   0.000  -0.000  14.017
 total augmentation occupancy for first ion, spin component:           1
  7.583  -3.597  -0.000   0.000   0.000   0.000   0.000   0.000
 -3.597   2.081  -0.000   0.000   0.000  -0.000   0.000   0.000
 -0.000   0.000   3.483   0.000   0.000  -0.938   0.000   0.000
  0.000   0.000  -0.000   3.482   0.000   0.000  -0.938  -0.000
  0.000  -0.000   0.000   0.000   3.483   0.000  -0.000  -0.938
  0.000  -0.000  -0.938  -0.000   0.000   0.273   0.000   0.000
  0.000   0.000  -0.000  -0.938   0.000   0.000   0.272  -0.000
  0.000   0.000  -0.000   0.000  -0.938   0.000   0.000   0.273


------------------------ aborting loop because EDIFF is reached ----------------------------------------


    CHARGE:  cpu time    0.0270: real time    0.0154
    FORLOC:  cpu time    0.0000: real time    0.0005
    FORNL :  cpu time    0.0210: real time    0.0123
    STRESS:  cpu time    0.2360: real time    0.1398
    FORCOR:  cpu time    0.0350: real time    0.0215
    FORHAR:  cpu time    0.0110: real time    0.0059
    MIXING:  cpu time    0.0010: real time    0.0018
    OFIELD:  cpu time    0.0000: real time    0.0000

  FORCE on cell =-STRESS in cart. coord.  units (eV):
  Direction    XX          YY          ZZ          XY          YZ          ZX
  --------------------------------------------------------------------------------------
  Alpha Z     6.09369     6.09369     6.09369
  Ewald     -99.65671   -99.65671   -99.45226    -0.00000     0.00000     0.00000
  Hartree     0.16529     0.16529     0.18010    -0.00000    -0.00000    -0.00000
  E(xc)     -27.39776   -27.39776   -27.42700    -0.00000    -0.00000    -0.00000
  Local      -5.94978    -5.94978    -6.24441    -0.00001     0.00000    -0.00000
  n-local    75.09747    80.57037    78.54297    -1.59330     0.25022    -0.89854
  augment   -11.97206   -11.97205   -11.96586     0.00001    -0.00000    -0.00000
  Kinetic    84.43466    49.28697    65.76131    11.69274     0.10802     0.24057
  Fock        0.00000     0.00000     0.00000     0.00000     0.00000     0.00000
  -------------------------------------------------------------------------------------
  Total       5.97741     5.97741     5.48854     0.00000     0.00000    -0.00000
  in kB     433.40078   433.40078   397.95468     0.00000     0.00000    -0.00000
  external pressure =      421.59 kB  Pullay stress =        0.00 kB


 VOLUME and BASIS-vectors are now :
 -----------------------------------------------------------------------------
  energy-cutoff  :      450.00
  volume of cell :       22.10
      direct lattice vectors                 reciprocal lattice vectors
     2.500000000  0.000000000  0.000000000     0.400000000  0.230940108  0.000000000
    -1.250000000  2.165063509  0.000000000     0.000000000  0.461880215  0.000000000
     0.000000000  0.000000000  4.082475000     0.000000000  0.000000000  0.244949449

  length of vectors
     2.500000000  2.500000000  4.082475000     0.461880215  0.461880215  0.244949449


 FORCES acting on ions
    electron-ion (+dipol)            ewald-force                    non-local-force                 convergence-correction
 -----------------------------------------------------------------------------------------------
   -.357E-08 0.206E-08 0.729E-14   -.109E-12 0.774E-13 -.472E-14   -.146E-15 -.347E-17 0.000E+00   0.529E-09 -.306E-09 0.317E-14
   0.357E-08 -.206E-08 -.365E-13   0.108E-12 -.765E-13 0.472E-14   0.120E-15 -.347E-17 0.000E+00   -.529E-09 0.306E-09 -.314E-14
 -----------------------------------------------------------------------------------------------
   -.591E-14 0.366E-15 -.292E-13   -.965E-15 0.949E-15 0.000E+00   -.260E-16 -.694E-17 0.000E+00   0.456E-16 0.260E-16 0.365E-16
 
 
 POSITION                                       TOTAL-FORCE (eV/Angst)
 -----------------------------------------------------------------------------------
      0.00000      0.00000      0.00000        -0.000000      0.000000      0.000000
     -0.00000      1.44338      2.04124         0.000000     -0.000000      0.000000
 -----------------------------------------------------------------------------------
    total drift:                               -0.000000      0.000000     -0.000000


--------------------------------------------------------------------------------------------------------



  FREE ENERGIE OF THE ION-ELECTRON SYSTEM (eV)
  ---------------------------------------------------
  free  energy   TOTEN  =        -9.18021110 eV

  energy  without entropy=       -9.17610433  energy(sigma->0) =       -9.17815771
 


--------------------------------------------------------------------------------------------------------


    POTLOK:  cpu time    0.0440: real time    0.0266


--------------------------------------------------------------------------------------------------------




--------------------------------------------------------------------------------------------------------


    WAVPRE:  cpu time    0.0030: real time    0.0021
 FEWALD executed in parallel
    FEWALD:  cpu time    0.0000: real time    0.0002
    GENKIN:  cpu time    0.0110: real time    0.0058
    ORTHCH:  cpu time    0.0960: real time    0.0575
     LOOP+:  cpu time   15.5316: real time    9.8033


----------------------------------------- Iteration    2(   1)  ---------------------------------------


    POTLOK:  cpu time    0.0270: real time    0.0157
    SETDIJ:  cpu time    0.0030: real time    0.0027
     EDDAV:  cpu time    2.0867: real time    1.2651
       DOS:  cpu time    0.0020: real time    0.0009
    CHARGE:  cpu time    0.0220: real time    0.0157
    MIXING:  cpu time    0.0010: real time    0.0006
    --------------------------------------------
      LOOP:  cpu time    2.1437: real time    1.3020

 eigenvalue-minimisations  :   912
 total energy-change (2. order) :-0.1781204E-02  (-0.7653178E-02)
 number of electron       8.0000000 magnetization 
 augmentation part       -0.4734437 magnetization 

 Broyden mixing:
  rms(total) = 0.17529E-01    rms(broyden)= 0.17529E-01
  rms(prec ) = 0.40912E-01
  weight for this iteration     100.00

 Free energy of the ion-electron system (eV)
  ---------------------------------------------------
  alpha Z        PSCENC =         6.09368938
  Ewald energy   TEWEN  =      -298.75809438
  -Hartree energ DENC   =        -0.51075159
  -exchange      EXHF   =         0.00000000
  -V(xc)+E(xc)   XCENC  =       -15.78732504
  PAW double counting   =      1170.11624187    -1135.09671648
  entropy T*S    EENTRO =        -0.00584771
  eigenvalues    EBANDS =        58.63488220
  atomic energy  EATOM  =       206.13192747
  Solvation  Ediel_sol  =         0.00000000
  ---------------------------------------------------
  free energy    TOTEN  =        -9.18199426 eV

  energy without entropy =       -9.17614655  energy(sigma->0) =       -9.17907040


--------------------------------------------------------------------------------------------------------




----------------------------------------- Iteration    2(   2)  ---------------------------------------


    POTLOK:  cpu time    0.0240: real time    0.0165
    SETDIJ:  cpu time    0.0030: real time    0.0018
     EDDAV:  cpu time    1.3088: real time    0.8321
       DOS:  cpu time    0.0080: real time    0.0063
    CHARGE:  cpu time    0.0220: real time    0.0118
    MIXING:  cpu time    0.0020: real time    0.0011
    --------------------------------------------
      LOOP:  cpu time    1.3728: real time    0.8724

 eigenvalue-minimisations  :   640
 total energy-change (2. order) : 0.6361786E-03  (-0.1171250E-03)
 number of electron       8.0000000 magnetization 
 augmentation part       -0.4734881 magnetization 

 Broyden mixing:
  rms(total) = 0.94477E-02    rms(broyden)= 0.94477E-02
  rms(prec ) = 0.22519E-01
  weight for this iteration     100.00

 eigenvalues of (default mixing * dielectric matrix)
  average eigenvalue GAMMA=   2.0176
  2.0176

 Free energy of the ion-electron system (eV)
  ---------------------------------------------------
  alpha Z        PSCENC =         6.09368938
  Ewald energy   TEWEN  =      -298.75809438
  -Hartree energ DENC   =        -0.51125323
  -exchange      EXHF   =         0.00000000
  -V(xc)+E(xc)   XCENC  =       -15.78737430
  PAW double counting   =      1169.90732890    -1134.88773397
  entropy T*S    EENTRO =        -0.00583444
  eigenvalues    EBANDS =        58.63598649
  atomic energy  EATOM  =       206.13192747
  Solvation  Ediel_sol  =         0.00000000
  ---------------------------------------------------
  free energy    TOTEN  =        -9.18135808 eV

  energy without entropy =       -9.17552364  energy(sigma->0) =       -9.17844086


--------------------------------------------------------------------------------------------------------




----------------------------------------- Iteration    2(   3)  ---------------------------------------


    POTLOK:  cpu time    0.0230: real time    0.0140
    SETDIJ:  cpu time    0.0140: real time    0.0101
     EDDAV:  cpu time    2.0977: real time    1.2928
       DOS:  cpu time    0.0150: real time    0.0085
    CHARGE:  cpu time    0.0200: real time    0.0130
    MIXING:  cpu time    0.0010: real time    0.0008
    --------------------------------------------
      LOOP:  cpu time    2.1737: real time    1.3422

 eigenvalue-minimisations  :   864
 total energy-change (2. order) : 0.2984327E-03  (-0.7111643E-04)
 number of electron       8.0000000 magnetization 
 augmentation part       -0.4734665 magnetization 

 Broyden mixing:
  rms(total) = 0.69989E-03    rms(broyden)= 0.69988E-03
  rms(prec ) = 0.11056E-02
  weight for this iteration     100.00

 eigenvalues of (default mixing * dielectric matrix)
  average eigenvalue GAMMA=   1.6212
  1.0580  2.1844

 Free energy of the ion-electron system (eV)
  ---------------------------------------------------
  alpha Z        PSCENC =         6.09368938
  Ewald energy   TEWEN  =      -298.75809438
  -Hartree energ DENC   =        -0.51237662
  -exchange      EXHF   =         0.00000000
  -V(xc)+E(xc)   XCENC  =       -15.78746655
  PAW double counting   =      1168.97526081    -1133.95577339
  entropy T*S    EENTRO =        -0.00581835
  eigenvalues    EBANDS =        58.63759197
  atomic energy  EATOM  =       206.13192747
  Solvation  Ediel_sol  =         0.00000000
  ---------------------------------------------------
  free energy    TOTEN  =        -9.18105965 eV

  energy without entropy =       -9.17524129  energy(sigma->0) =       -9.17815047


--------------------------------------------------------------------------------------------------------




----------------------------------------- Iteration    2(   4)  ---------------------------------------


    POTLOK:  cpu time    0.0400: real time    0.0253
    SETDIJ:  cpu time    0.0030: real time    0.0016
     EDDAV:  cpu time    1.5738: real time    1.0568
       DOS:  cpu time    0.0020: real time    0.0009
    --------------------------------------------
      LOOP:  cpu time    1.6238: real time    1.0879

 eigenvalue-minimisations  :   584
 total energy-change (2. order) :-0.2124890E-05  (-0.2014559E-05)
 number of electron       8.0000000 magnetization 
 augmentation part       -0.4734665 magnetization 

 Free energy of the ion-electron system (eV)
  ---------------------------------------------------
  alpha Z        PSCENC =         6.09368938
  Ewald energy   TEWEN  =      -298.75809438
  -Hartree energ DENC   =        -0.51218556
  -exchange      EXHF   =         0.00000000
  -V(xc)+E(xc)   XCENC  =       -15.78750009
  PAW double counting   =      1168.96111579    -1133.94163871
  entropy T*S    EENTRO =        -0.00581839
  eigenvalues    EBANDS =        58.63744272
  atomic energy  EATOM  =       206.13192747
  Solvation  Ediel_sol  =         0.00000000
  ---------------------------------------------------
  free energy    TOTEN  =        -9.18106177 eV

  energy without entropy =       -9.17524338  energy(sigma->0) =       -9.17815258


--------------------------------------------------------------------------------------------------------




 average (electrostatic) potential at core
  the test charge radii are     0.9892
  (the norm of the test charge is              1.0000)
       1 -75.8868       2 -75.8868
 
 
 
 E-fermi :  14.1550     XC(G=0): -12.3190     alpha+bet :-21.7083


 k-point     1 :       0.0833    0.0833    0.0833
  band No.  band energies     occupation 
      1      -2.3572      2.00000
      2       4.8364      2.00000
      3       7.6817      2.00000
      4      19.3948      0.00000
      5      19.4574      0.00000
      6      25.5025      0.00000
      7      25.7555      0.00000
      8      25.8657      0.00000

 k-point     2 :       0.2500    0.0833    0.0833
  band No.  band energies     occupation 
      1      -0.2439      2.00000
      2       6.8363      2.00000
      3       9.5660      2.00000
      4      12.2669      2.00000
      5      16.6928      0.00000
      6      18.9544      0.00000
      7      21.3616      0.00000
      8      23.6795      0.00000

 k-point     3 :       0.4167    0.0833    0.0833
  band No.  band energies     occupation 
      1       3.4847      2.00000
      2       5.9267      2.00000
      3      10.4901      2.00000
      4      12.5870      2.00000
      5      13.5833      2.00000
      6      15.2611      0.00000
      7      16.5279      0.00000
      8      22.4692      0.00000

 k-point     4 :      -0.4167    0.0833    0.0833
  band No.  band energies     occupation 
      1       1.4270      2.00000
      2       8.1144      2.00000
      3       9.0848      2.00000
      4      11.4195      2.00000
      5      15.3777      0.00000
      6      16.4092      0.00000
      7      18.5829      0.00000
      8      22.8631      0.00000

 k-point     5 :      -0.2500    0.0833    0.0833
  band No.  band energies     occupation 
      1      -1.5086      2.00000
      2       5.6440      2.00000
      3       8.4676      2.00000
      4      15.6779      0.00000
      5      17.9045      0.00000
      6      22.2241      0.00000
      7      24.0043      0.00000
      8      25.0964      0.00000

 k-point     6 :      -0.0833    0.0833    0.0833
  band No.  band energies     occupation 
      1      -2.7832      2.00000
      2       4.4302      2.00000
      3       7.2828      2.00000
      4      21.2430      0.00000
      5      22.6252      0.00000
      6      24.4608      0.00000
      7      26.8800      0.00000
      8      27.0784      0.00000

 k-point     7 :       0.2500    0.2500    0.0833
  band No.  band energies     occupation 
      1       2.6690      2.00000
      2       9.0673      2.00000
      3      10.1169      2.00000
      4      10.3437      2.00000
      5      12.7431      2.00000
      6      16.5900      0.00000
      7      17.3923      0.00000
      8      19.9900      0.00000

 k-point     8 :       0.4167    0.2500    0.0833
  band No.  band energies     occupation 
      1       4.7095      2.00000
      2       7.1215      2.00000
      3       9.4729      2.00000
      4      11.7944      2.00000
      5      13.7057      2.00000
      6      14.9020      0.00000
      7      16.5283      0.00000
      8      17.8396      0.00000

 k-point     9 :      -0.4167    0.2500    0.0833
  band No.  band energies     occupation 
      1       1.0113      2.00000
      2       7.9847      2.00000
      3      10.2851      2.00000
      4      11.4707      2.00000
      5      13.3893      2.00000
      6      17.7533      0.00000
      7      19.6747      0.00000
      8      21.1580      0.00000

 k-point    10 :      -0.2500    0.2500    0.0833
  band No.  band energies     occupation 
      1      -1.0860      2.00000
      2       6.0443      2.00000
      3       8.8474      2.00000
      4      13.7671      2.00000
      5      19.7371      0.00000
      6      20.1572      0.00000
      7      21.8411      0.00000
      8      23.3289      0.00000

 k-point    11 :       0.4167    0.4167    0.0833
  band No.  band energies     occupation 
      1       4.9727      2.00000
      2       5.2708      2.00000
      3      11.5005      2.00000
      4      12.2735      2.00000
      5      12.5300      2.00000
      6      14.9319      0.00000
      7      15.6763      0.00000
      8      19.6563      0.00000

 k-point    12 :      -0.4167    0.4167    0.0833
  band No.  band energies     occupation 
      1       2.2546      2.00000
      2       7.0705      2.00000
      3       9.3827      2.00000
      4      12.0795      2.00000
      5      14.2640      0.12310
      6      16.7980      0.00000
      7      18.2928      0.00000
      8      20.8570      0.00000

 k-point    13 :       0.0833    0.0833    0.2500
  band No.  band energies     occupation 
      1      -1.8675      2.00000
      2       2.4777      2.00000
      3      10.8853      2.00000
      4      19.7737      0.00000
      5      19.8079      0.00000
      6      22.7489      0.00000
      7      23.7517      0.00000
      8      24.0105      0.00000

 k-point    14 :       0.2500    0.0833    0.2500
  band No.  band energies     occupation 
      1       0.2398      2.00000
      2       4.5239      2.00000
      3      12.0989      2.00000
      4      13.2630      2.00000
      5      16.3878      0.00000
      6      17.5899      0.00000
      7      21.1925      0.00000
      8      23.9216      0.00000

 k-point    15 :       0.4167    0.0833    0.2500
  band No.  band energies     occupation 
      1       3.9532      2.00000
      2       6.3256      2.00000
      3       8.3372      2.00000
      4      10.6414      2.00000
      5      15.6556      0.00000
      6      16.8898      0.00000
      7      18.7585      0.00000
      8      20.5662      0.00000

 k-point    16 :      -0.4167    0.0833    0.2500
  band No.  band energies     occupation 
      1       1.9053      2.00000
      2       6.1076      2.00000
      3       9.3420      2.00000
      4      13.2030      2.00000
      5      14.6200      0.00000
      6      16.7050      0.00000
      7      20.2649      0.00000
      8      21.8612      0.00000

 k-point    17 :      -0.2500    0.0833    0.2500
  band No.  band energies     occupation 
      1      -1.0213      2.00000
      2       3.3010      2.00000
      3      11.6244      2.00000
      4      16.1140      0.00000
      5      18.2618      0.00000
      6      20.1710      0.00000
      7      22.3162      0.00000
      8      23.6062      0.00000

 k-point    18 :      -0.0833    0.0833    0.2500
  band No.  band energies     occupation 
      1      -2.2922      2.00000
      2       2.0641      2.00000
      3      10.5022      2.00000
      4      21.4362      0.00000
      5      22.4887      0.00000
      6      23.0349      0.00000
      7      25.0212      0.00000
      8      26.0829      0.00000

 k-point    19 :       0.2500    0.2500    0.2500
  band No.  band energies     occupation 
      1       3.1427      2.00000
      2       7.2646      2.00000
      3      10.4813      2.00000
      4      10.5533      2.00000
      5      14.2436      0.21025
      6      14.6113      0.00000
      7      16.6606      0.00000
      8      22.6420      0.00000

 k-point    20 :       0.4167    0.2500    0.2500
  band No.  band energies     occupation 
      1       5.1710      2.00000
      2       7.4989      2.00000
      3       9.2794      2.00000
      4      10.3088      2.00000
      5      11.9878      2.00000
      6      14.1805      0.71785
      7      18.1494      0.00000
      8      20.3529      0.00000

 k-point    21 :      -0.4167    0.2500    0.2500
  band No.  band energies     occupation 
      1       1.4910      2.00000
      2       5.7278      2.00000
      3      11.2415      2.00000
      4      13.3594      2.00000
      5      14.1218      1.36122
      6      15.9356      0.00000
      7      18.0334      0.00000
      8      23.5012      0.00000

 k-point    22 :      -0.2500    0.2500    0.2500
  band No.  band energies     occupation 
      1      -0.5999      2.00000
      2       3.7103      2.00000
      3      11.9365      2.00000
      4      14.2690      0.10682
      5      18.1428      0.00000
      6      20.1533      0.00000
      7      22.0475      0.00000
      8      23.9104      0.00000

 k-point    23 :       0.4167    0.4167    0.2500
  band No.  band energies     occupation 
      1       5.4291      2.00000
      2       5.7178      2.00000
      3       9.6456      2.00000
      4      10.0268      2.00000
      5      12.9767      2.00000
      6      16.5161      0.00000
      7      18.3416      0.00000
      8      18.9929      0.00000

 k-point    24 :      -0.4167    0.4167    0.2500
  band No.  band energies     occupation 
      1       2.7296      2.00000
      2       6.7313      2.00000
      3       7.9391      2.00000
      4      11.7920      2.00000
      5      15.3726      0.00000
      6      18.7093      0.00000
      7      19.5240      0.00000
      8      21.4141      0.00000

 k-point    25 :       0.0833    0.0833    0.4167
  band No.  band energies     occupation 
      1      -0.8922      2.00000
      2       0.5604      2.00000
      3      14.4702      0.00001
      4      18.2755      0.00000
      5      20.5855      0.00000
      6      20.9188      0.00000
      7      22.1911      0.00000
      8      22.4168      0.00000

 k-point    26 :       0.2500    0.0833    0.4167
  band No.  band energies     occupation 
      1       1.2027      2.00000
      2       2.6357      2.00000
      3      13.3252      2.00000
      4      14.5890      0.00000
      5      16.5232      0.00000
      6      18.1487      0.00000
      7      19.5871      0.00000
      8      20.9242      0.00000

 k-point    27 :       0.4167    0.0833    0.4167
  band No.  band energies     occupation 
      1       4.8761      2.00000
      2       6.1485      2.00000
      3       7.6004      2.00000
      4       8.8522      2.00000
      5      16.8439      0.00000
      6      18.0368      0.00000
      7      20.3606      0.00000
      8      22.3135      0.00000

 k-point    28 :      -0.4167    0.0833    0.4167
  band No.  band energies     occupation 
      1       2.8564      2.00000
      2       4.2680      2.00000
      3      10.2397      2.00000
      4      11.5839      2.00000
[...]

 k-point     2 :       0.2500    0.0833    0.0833
  band No.  band energies     occupation 
      1      -0.2350      2.00000
      2       6.8032      2.00000
      3       9.5133      2.00000
      4      12.3074      2.00000
      5      16.7487      0.00000
      6      18.9685      0.00000
      7      21.3507      0.00000
      8      23.6929      0.00000

 k-point     3 :       0.4167    0.0833    0.0833
  band No.  band energies     occupation 
      1       3.5057      2.00000
      2       5.9525      2.00000
      3      10.4739      2.00000
      4      12.5586      2.00000
      5      13.5580      2.00000
      6      15.2613      0.00000
      7      16.5432      0.00000
      8      22.4852      0.00000

 k-point     4 :      -0.4167    0.0833    0.0833
  band No.  band energies     occupation 
      1       1.4411      2.00000
      2       8.1042      2.00000
      3       9.1011      2.00000
      4      11.3705      2.00000
      5      15.3913      0.00000
      6      16.4480      0.00000
      7      18.5610      0.00000
      8      22.8787      0.00000

 k-point     5 :      -0.2500    0.0833    0.0833
  band No.  band energies     occupation 
      1      -1.5039      2.00000
      2       5.6062      2.00000
      3       8.4052      2.00000
      4      15.7348      0.00000
      5      17.9686      0.00000
      6      22.2449      0.00000
      7      24.0192      0.00000
      8      25.1511      0.00000

 k-point     6 :      -0.0833    0.0833    0.0833
  band No.  band energies     occupation 
      1      -2.7826      2.00000
      2       4.3877      2.00000
      3       7.2156      2.00000
      4      21.3188      0.00000
      5      22.7122      0.00000
      6      24.5072      0.00000
      7      26.7802      0.00000
      8      27.1697      0.00000

 k-point     7 :       0.2500    0.2500    0.0833
  band No.  band energies     occupation 
      1       2.6871      2.00000
      2       9.0680      2.00000
      3      10.1492      2.00000
      4      10.3606      2.00000
      5      12.6997      2.00000
      6      16.6068      0.00000
      7      17.3754      0.00000
      8      19.9593      0.00000

 k-point     8 :       0.4167    0.2500    0.0833
  band No.  band energies     occupation 
      1       4.7343      2.00000
      2       7.1514      2.00000
      3       9.5045      2.00000
      4      11.7865      2.00000
      5      13.6787      2.00000
      6      14.8890      0.00000
      7      16.5036      0.00000
      8      17.8186      0.00000

 k-point     9 :      -0.4167    0.2500    0.0833
  band No.  band energies     occupation 
      1       1.0241      2.00000
      2       7.9566      2.00000
      3      10.2768      2.00000
      4      11.4715      2.00000
      5      13.4318      2.00000
      6      17.7637      0.00000
      7      19.6675      0.00000
      8      21.1466      0.00000

 k-point    10 :      -0.2500    0.2500    0.0833
  band No.  band energies     occupation 
      1      -1.0799      2.00000
      2       6.0080      2.00000
      3       8.7873      2.00000
      4      13.8170      1.99999
      5      19.8157      0.00000
      6      20.1697      0.00000
      7      21.8872      0.00000
      8      23.3269      0.00000

 k-point    11 :       0.4167    0.4167    0.0833
  band No.  band energies     occupation 
      1       5.0040      2.00000
      2       5.2894      2.00000
      3      11.5066      2.00000
      4      12.2439      2.00000
      5      12.5590      2.00000
      6      14.8979      0.00000
      7      15.6451      0.00000
      8      19.6612      0.00000

 k-point    12 :      -0.4167    0.4167    0.0833
  band No.  band energies     occupation 
      1       2.2715      2.00000
      2       7.0966      2.00000
      3       9.3644      2.00000
      4      12.0301      2.00000
      5      14.2540      0.09794
      6      16.7688      0.00000
      7      18.3678      0.00000
      8      20.9098      0.00000

 k-point    13 :       0.0833    0.0833    0.2500
  band No.  band energies     occupation 
      1      -1.8687      2.00000
      2       2.4493      2.00000
      3      10.8027      2.00000
      4      19.8209      0.00000
      5      19.8812      0.00000
      6      22.6509      0.00000
      7      23.7808      0.00000
      8      24.0461      0.00000

 k-point    14 :       0.2500    0.0833    0.2500
  band No.  band energies     occupation 
      1       0.2455      2.00000
      2       4.5027      2.00000
      3      12.0949      2.00000
      4      13.2375      2.00000
      5      16.4132      0.00000
      6      17.6395      0.00000
      7      21.2223      0.00000
      8      23.8944      0.00000

 k-point    15 :       0.4167    0.0833    0.2500
  band No.  band energies     occupation 
      1       3.9710      2.00000
      2       6.3460      2.00000
      3       8.3333      2.00000
      4      10.6392      2.00000
      5      15.6697      0.00000
      6      16.8678      0.00000
      7      18.7234      0.00000
      8      20.5821      0.00000

 k-point    16 :      -0.4167    0.0833    0.2500
  band No.  band energies     occupation 
      1       1.9163      2.00000
      2       6.0925      2.00000
      3       9.3744      2.00000
      4      13.1982      2.00000
      5      14.5744      0.00000
      6      16.7521      0.00000
      7      20.2807      0.00000
      8      21.8362      0.00000

 k-point    17 :      -0.2500    0.0833    0.2500
  band No.  band energies     occupation 
      1      -1.0197      2.00000
      2       3.2754      2.00000
      3      11.5467      2.00000
      4      16.1660      0.00000
      5      18.3195      0.00000
      6      20.2014      0.00000
      7      22.3411      0.00000
      8      23.5098      0.00000

 k-point    18 :      -0.0833    0.0833    0.2500
  band No.  band energies     occupation 
      1      -2.2948      2.00000
      2       2.0342      2.00000
      3      10.4177      2.00000
      4      21.4452      0.00000
      5      22.4243      0.00000
      6      23.1189      0.00000
      7      25.0705      0.00000
      8      26.1439      0.00000

 k-point    19 :       0.2500    0.2500    0.2500
  band No.  band energies     occupation 
      1       3.1576      2.00000
      2       7.2543      2.00000
      3      10.5223      2.00000
      4      10.5820      2.00000
      5      14.2253      0.21173
      6      14.6346      0.00000
      7      16.6181      0.00000
      8      22.5953      0.00000

 k-point    20 :       0.4167    0.2500    0.2500
  band No.  band energies     occupation 
      1       5.1926      2.00000
      2       7.5233      2.00000
      3       9.2859      2.00000
      4      10.3321      2.00000
      5      11.9953      2.00000
      6      14.1889      0.46260
      7      18.0940      0.00000
      8      20.3016      0.00000

 k-point    21 :      -0.4167    0.2500    0.2500
  band No.  band energies     occupation 
      1       1.5007      2.00000
      2       5.7110      2.00000
      3      11.2772      2.00000
      4      13.3696      2.00000
      5      14.0984      1.41468
      6      15.9492      0.00000
      7      18.0495      0.00000
      8      23.4527      0.00000

 k-point    22 :      -0.2500    0.2500    0.2500
  band No.  band energies     occupation 
      1      -0.5969      2.00000
      2       3.6862      2.00000
      3      11.8660      2.00000
      4      14.3099      0.01445
      5      18.1653      0.00000
      6      20.2291      0.00000
      7      22.0617      0.00000
      8      23.9592      0.00000

 k-point    23 :       0.4167    0.4167    0.2500
  band No.  band energies     occupation 
      1       5.4570      2.00000
      2       5.7331      2.00000
      3       9.6510      2.00000
      4      10.0158      2.00000
      5      13.0194      2.00000
      6      16.5156      0.00000
      7      18.2893      0.00000
      8      18.9535      0.00000

 k-point    24 :      -0.4167    0.4167    0.2500
  band No.  band energies     occupation 
      1       2.7433      2.00000
      2       6.7250      2.00000
      3       7.9612      2.00000
      4      11.7927      2.00000
      5      15.3103      0.00000
      6      18.7815      0.00000
      7      19.4976      0.00000
      8      21.4399      0.00000

 k-point    25 :       0.0833    0.0833    0.4167
  band No.  band energies     occupation 
      1      -0.8997      2.00000
      2       0.5437      2.00000
      3      14.3680      0.00109
      4      18.1644      0.00000
      5      20.6509      0.00000
      6      20.9663      0.00000
      7      22.2476      0.00000
      8      22.4668      0.00000

 k-point    26 :       0.2500    0.0833    0.4167
  band No.  band energies     occupation 
      1       1.2021      2.00000
      2       2.6261      2.00000
      3      13.3580      2.00000
      4      14.6069      0.00000
      5      16.4589      0.00000
      6      18.1784      0.00000
      7      19.6120      0.00000
      8      20.8421      0.00000

 k-point    27 :       0.4167    0.0833    0.4167
  band No.  band energies     occupation 
      1       4.8875      2.00000
      2       6.1518      2.00000
      3       7.6187      2.00000
      4       8.8623      2.00000
      5      16.8878      0.00000
      6      18.0646      0.00000
      7      20.2960      0.00000
      8      22.2487      0.00000

 k-point    28 :      -0.4167    0.0833    0.4167
  band No.  band energies     occupation 
      1       2.8613      2.00000
      2       4.2638      2.00000
      3      10.2670      2.00000
      4      11.6021      2.00000
      5      17.0354      0.00000
      6      17.9372      0.00000
      7      19.2469      0.00000
      8      21.9734      0.00000

 k-point    29 :      -0.2500    0.0833    0.4167
  band No.  band energies     occupation 
      1      -0.0556      2.00000
      2       1.3804      2.00000
      3      14.9757      0.00000
      4      16.9338      0.00000
      5      18.2119      0.00000
      6      18.7177      0.00000
      7      20.2382      0.00000
      8      20.9707      0.00000

 k-point    30 :      -0.0833    0.0833    0.4167
  band No.  band energies     occupation 
      1      -1.3234      2.00000
      2       0.1236      2.00000
      3      14.0126      1.92143
      4      17.9296      0.00000
      5      22.6574      0.00000
      6      23.8233      0.00000
      7      23.9316      0.00000
      8      25.1457      0.00000

 k-point    31 :       0.2500    0.2500    0.4167
  band No.  band energies     occupation 
      1       4.0923      2.00000
      2       5.4744      2.00000
      3      11.3084      2.00000
      4      11.3706      2.00000
      5      12.9858      2.00000
      6      13.0022      2.00000
      7      19.5873      0.00000
      8      23.1292      0.00000

 k-point    32 :       0.4167    0.2500    0.4167
  band No.  band energies     occupation 
      1       6.0907      2.00000
      2       7.3058      2.00000
      3       8.8152      2.00000
      4       9.9203      2.00000
      5      11.3433      2.00000
      6      12.5336      2.00000
      7      21.3819      0.00000
      8      23.3749      0.00000

 k-point    33 :      -0.4167    0.2500    0.4167
  band No.  band energies     occupation 
      1       2.4492      2.00000
      2       3.8591      2.00000
      3      12.2033      2.00000
      4      13.4204      2.00000
      5      14.6991      0.00000
      6      15.8345      0.00000
      7      18.3242      0.00000
      8      21.8093      0.00000

 k-point    34 :      -0.2500    0.2500    0.4167
  band No.  band energies     occupation 
      1       0.3648      2.00000
      2       1.7969      2.00000
      3      14.6596      0.00000
      4      15.5600      0.00000
      5      16.7473      0.00000
      6      19.5327      0.00000
      7      21.0569      0.00000
      8      22.3007      0.00000

 k-point    35 :       0.4167    0.4167    0.4167
  band No.  band energies     occupation 
      1       6.3045      2.00000
      2       6.5288      2.00000
      3       8.0276      2.00000
      4       8.2668      2.00000
      5      13.9079      1.99880
      6      15.1953      0.00000
      7      21.5389      0.00000
      8      21.9142      0.00000

 k-point    36 :      -0.4167    0.4167    0.4167
  band No.  band energies     occupation 
      1       3.6800      2.00000
      2       5.0598      2.00000
      3       8.6983      2.00000
      4      10.0379      2.00000
      5      18.5831      0.00000
      6      19.6103      0.00000
      7      20.8565      0.00000
      8      21.0145      0.00000


--------------------------------------------------------------------------------------------------------


 soft charge-density along one line, spin component           1
         0         1         2         3         4         5         6         7         8         9
 total charge-density along one line
 
 pseudopotential strength for first ion, spin component:           1
 17.527  24.448  -0.000   0.000   0.000  -0.000   0.000   0.000
 24.448  34.106  -0.000   0.000   0.000  -0.000   0.000   0.000
 -0.000  -0.000   4.040  -0.000   0.000   7.522  -0.000   0.000
  0.000   0.000  -0.000   4.040  -0.000  -0.000   7.522  -0.000
  0.000   0.000   0.000  -0.000   4.040   0.000  -0.000   7.522
 -0.000  -0.000   7.522  -0.000   0.000  14.016  -0.000   0.000
  0.000   0.000  -0.000   7.522  -0.000  -0.000  14.017  -0.000
  0.000   0.000   0.000  -0.000   7.522   0.000  -0.000  14.016
 total augmentation occupancy for first ion, spin component:           1
  7.573  -3.592   0.000   0.000  -0.000   0.000   0.000   0.000
 -3.592   2.080   0.000   0.000   0.000  -0.000   0.000  -0.000
  0.000   0.000   3.467  -0.000   0.000  -0.933  -0.000  -0.000
  0.000   0.000  -0.000   3.506   0.000   0.000  -0.944   0.000
 -0.000   0.000   0.000  -0.000   3.467  -0.000  -0.000  -0.933
 -0.000   0.000  -0.933  -0.000  -0.000   0.271   0.000  -0.000
  0.000   0.000  -0.000  -0.944  -0.000  -0.000   0.275  -0.000
  0.000  -0.000  -0.000  -0.000  -0.933   0.000  -0.000   0.271


------------------------ aborting loop because EDIFF is reached ----------------------------------------


    CHARGE:  cpu time    0.0280: real time    0.0178
    FORLOC:  cpu time    0.0000: real time    0.0005
    FORNL :  cpu time    0.0440: real time    0.0271
    STRESS:  cpu time    0.2970: real time    0.1700
    FORCOR:  cpu time    0.0370: real time    0.0226
    FORHAR:  cpu time    0.0150: real time    0.0091
    MIXING:  cpu time    0.0030: real time    0.0024
    OFIELD:  cpu time    0.0000: real time    0.0000

  FORCE on cell =-STRESS in cart. coord.  units (eV):
  Direction    XX          YY          ZZ          XY          YZ          ZX
  --------------------------------------------------------------------------------------
  Alpha Z     6.09369     6.09369     6.09369
  Ewald     -99.94364   -99.94364   -98.87545    -0.00000    -0.00000     0.00000
  Hartree     0.16122     0.16122     0.18859    -0.00000    -0.00000    -0.00000
  E(xc)     -27.39364   -27.39364   -27.43550    -0.00000     0.00000    -0.00000
  Local      -5.67411    -5.67412    -6.79962    -0.00001    -0.00000    -0.00000
  n-local    75.08039    80.48099    78.68025    -1.58302     0.24568    -0.89023
  augment   -11.96712   -11.96711   -11.98638     0.00001    -0.00000    -0.00000
  Kinetic    84.16521    49.34661    65.95864    11.60506     0.13112     0.23936
  Fock        0.00000     0.00000     0.00000     0.00000     0.00000     0.00000
  -------------------------------------------------------------------------------------
  Total       5.81300     5.81300     5.82421    -0.00000     0.00000     0.00000
  in kB     421.47983   421.47983   422.29270    -0.00000     0.00000     0.00000
  external pressure =      421.75 kB  Pullay stress =        0.00 kB


 VOLUME and BASIS-vectors are now :
 -----------------------------------------------------------------------------
  energy-cutoff  :      450.00
  volume of cell :       22.10
      direct lattice vectors                 reciprocal lattice vectors
     2.505803347 -0.000000000 -0.000000000     0.399073615  0.230405259 -0.000000000
    -1.252901674  2.170089356  0.000000000     0.000000000  0.460810518 -0.000000000
     0.000000000  0.000000000  4.063587177     0.000000000  0.000000000  0.246087990

  length of vectors
     2.505803347  2.505803347  4.063587177     0.460810518  0.460810518  0.246087990


 FORCES acting on ions
    electron-ion (+dipol)            ewald-force                    non-local-force                 convergence-correction
 -----------------------------------------------------------------------------------------------
   -.343E-08 0.198E-08 0.631E-14   -.109E-12 0.965E-13 -.436E-14   0.347E-16 0.347E-17 0.000E+00   -.916E-10 0.529E-10 -.167E-16
   0.343E-08 -.198E-08 -.384E-13   0.111E-12 -.971E-13 0.436E-14   -.356E-16 -.173E-17 0.000E+00   0.916E-10 -.529E-10 0.153E-16
 -----------------------------------------------------------------------------------------------
   -.560E-14 -.111E-16 -.321E-13   0.147E-14 -.598E-15 -.871E-18   -.867E-18 0.173E-17 0.000E+00   -.146E-16 0.920E-16 -.142E-17
 
 
 POSITION                                       TOTAL-FORCE (eV/Angst)
 -----------------------------------------------------------------------------------
     -0.00000      0.00000      0.00000        -0.000000      0.000000     -0.000000
     -0.00000      1.44673      2.03179         0.000000     -0.000000      0.000000
 -----------------------------------------------------------------------------------
    total drift:                               -0.000000     -0.000000     -0.000000


--------------------------------------------------------------------------------------------------------



  FREE ENERGIE OF THE ION-ELECTRON SYSTEM (eV)
  ---------------------------------------------------
  free  energy   TOTEN  =        -9.18136018 eV

  energy  without entropy=       -9.17693398  energy(sigma->0) =       -9.17914708
 
 d Force = 0.0000000E+00[ 0.000E+00, 0.000E+00]  d Energy = 0.5922135E-05-0.592E-05
 d Force = 0.0000000E+00[ 0.000E+00, 0.000E+00]  d Ewald  = 0.3185073E-03-0.319E-03


--------------------------------------------------------------------------------------------------------


    POTLOK:  cpu time    0.0490: real time    0.0298


--------------------------------------------------------------------------------------------------------




--------------------------------------------------------------------------------------------------------


  
 reached required accuracy - stopping structural energy minimisation
 writing wavefunctions
     LOOP+:  cpu time    4.5253: real time    2.8061
    4ORBIT:  cpu time    0.0000: real time    0.0000

 total amount of memory used by VASP on root node    33681. kBytes
========================================================================

   base      :      30000. kBytes
   nonl-proj :       1158. kBytes
   fftplans  :        669. kBytes
   grid      :       1259. kBytes
   one-center:          6. kBytes
   wavefun   :        589. kBytes
 
  
  
 General timing and accounting informations for this job:
 ========================================================
  
                  Total CPU time used (sec):       37.880
                            User time (sec):       35.286
                          System time (sec):        2.595
                         Elapsed time (sec):       24.976
  
                   Maximum memory used (kb):       38188.
                   Average memory used (kb):           0.
  
                          Minor page faults:        37754
                          Major page faults:            9
                 Voluntary context switches:          839
