 running on    4 total cores
 distrk:  each k-point on    4 cores,    1 groups
 distr:  one band on    1 cores,    4 groups
 using from now: INCAR     
 vasp.5.4.1 24Jun15 (build Jul 19 2016 16:50:41) complex                        
  
 POSCAR found :  1 types and       2 ions
 LDA part: xc-table for Pade appr. of Perdew
 POSCAR, INCAR and KPOINTS ok, starting setup
 FFT: planning ...
 WAVECAR not read
 entering main loop
       N       E                     dE             d eps       ncg     rms          rms(c)
DAV:   1     0.371668594387E+01    0.37167E+01   -0.34363E+03   592   0.732E+02
DAV:   2    -0.913252156712E+01   -0.12849E+02   -0.12321E+02   872   0.785E+01
DAV:   3    -0.924597354620E+01   -0.11345E+00   -0.11340E+00   696   0.894E+00
DAV:   4    -0.924621116966E+01   -0.23762E-03   -0.23762E-03   880   0.407E-01
DAV:   5    -0.924621138273E+01   -0.21307E-06   -0.21255E-06   752   0.777E-03    0.633E+00
DAV:   6    -0.920515928919E+01    0.41052E-01   -0.64785E-03   680   0.553E-01    0.354E+00
DAV:   7    -0.918045258155E+01    0.24707E-01   -0.13518E-02   704   0.808E-01    0.201E-01
DAV:   8    -0.918021305357E+01    0.23953E-03   -0.12359E-04   928   0.105E-01    0.236E-02
DAV:   9    -0.918021109999E+01    0.19536E-05   -0.29201E-06   472   0.134E-02
   1 F= -.91802111E+01 E0= -.91781577E+01  d E =-.918021E+01
 curvature:   0.00 expect dE= 0.000E+00 dE for cont linesearch  0.000E+00
 trial: gam= 0.00000 g(F)=  0.220E-50 g(S)=  0.384E-02 ort = 0.000E+00 (trialstep = 0.100E+01)
 search vector abs. value=  0.384E-02
 bond charge predicted
       N       E                     dE             d eps       ncg     rms          rms(c)
DAV:   1    -0.918199425776E+01   -0.17812E-02   -0.76532E-02   912   0.174E+00    0.175E-01
DAV:   2    -0.918135807916E+01    0.63618E-03   -0.11713E-03   640   0.299E-01    0.945E-02
DAV:   3    -0.918105964645E+01    0.29843E-03   -0.71116E-04   864   0.160E-01    0.700E-03
DAV:   4    -0.918106177133E+01   -0.21249E-05   -0.20146E-05   584   0.411E-02
   2 F= -.91810618E+01 E0= -.91781526E+01  d E =-.850671E-03
 trial-energy change:   -0.000851  1 .order   -0.001480   -0.003843    0.000883
 step:   0.6261(harm=  0.8132)  dis= 0.00000  next Energy=    -9.181260 (dE=-0.105E-02)
 bond charge predicted
       N       E                     dE             d eps       ncg     rms          rms(c)
DAV:   1    -0.918149055842E+01   -0.43091E-03   -0.10668E-02   896   0.644E-01    0.661E-02
DAV:   2    -0.918139759064E+01    0.92968E-04   -0.16517E-04   640   0.112E-01    0.356E-02
DAV:   3    -0.918135397339E+01    0.43617E-04   -0.10322E-04   856   0.609E-02    0.259E-03
DAV:   4    -0.918135425344E+01   -0.28005E-06   -0.28260E-06   352   0.156E-02
   3 F= -.91813543E+01 E0= -.91790933E+01  d E =-.114315E-02
 curvature:   0.00 expect dE= 0.162E-07 dE for cont linesearch  0.162E-07
 ZBRENT: interpolating
 opt :   0.5892  next Energy=    -9.181359 (dE=-0.115E-02)
 bond charge predicted
       N       E                     dE             d eps       ncg     rms          rms(c)
DAV:   1    -0.918136098387E+01   -0.70105E-05   -0.10464E-04   920   0.642E-02    0.630E-03
DAV:   2    -0.918136017557E+01    0.80829E-06   -0.14813E-06   344   0.108E-02
   4 F= -.91813602E+01 E0= -.91791471E+01  d E =-.114908E-02
 curvature:  -0.29 expect dE=-0.595E-06 dE for cont linesearch -0.595E-06
 trial: gam= 0.00000 g(F)=  0.697E-51 g(S)=  0.202E-05 ort =-0.881E-04 (trialstep = 0.918E+00)
 search vector abs. value=  0.202E-05
 reached required accuracy - stopping structural energy minimisation
 writing wavefunctions
