<?xml version="1.0" encoding="ISO-8859-1"?>
<modeling>
 <generator>
  <i name="program" type="string">vasp </i>
  <i name="version" type="string">5.4.1  </i>
  <i name="subversion" type="string">24Jun15 (build Jul 19 2016 16:50:41) complex                          parallel </i>
  <i name="platform" type="string">IFC91_ompi </i>
  <i name="date" type="string">2019 10 10 </i>
  <i name="time" type="string">11:11:36 </i>
 </generator>
 <incar>
  <i type="string" name="SYSTEM"> Si beta-tin</i>
  <i type="string" name="PREC">accurate</i>
  <i type="int" name="IBRION">     2</i>
  <i name="EDIFF">      0.00001000</i>
  <i name="EDIFFG">     -0.01000000</i>
  <i type="int" name="NSW">   100</i>
  <i type="int" name="ISIF">     4</i>
  <i name="ENMAX">    450.00000000</i>
  <i type="int" name="ISMEAR">     0</i>
  <i name="SIGMA">      0.10000000</i>
  <v type="int" name="KPOINT_BSE">    -1     0     0     0</v>
 </incar>
 <kpoints>
  <generation param="Monkhorst-Pack">
   <v type="int" name="divisions">       6        6        6 </v>
   <v name="usershift">      0.00000000       0.00000000       0.00000000 </v>
   <v name="genvec1">      0.16666667       0.00000000       0.00000000 </v>
   <v name="genvec2">      0.00000000       0.16666667       0.00000000 </v>
   <v name="genvec3">      0.00000000       0.00000000       0.16666667 </v>
   <v name="shift">      0.50000000       0.50000000       0.50000000 </v>
  </generation>
  <varray name="kpointlist" >
   <v>       0.08333333       0.08333333       0.08333333 </v>
   <v>       0.25000000       0.08333333       0.08333333 </v>
   <v>       0.41666667       0.08333333       0.08333333 </v>
   <v>      -0.41666667       0.08333333       0.08333333 </v>
   <v>      -0.25000000       0.08333333       0.08333333 </v>
   <v>      -0.08333333       0.08333333       0.08333333 </v>
   <v>       0.25000000       0.25000000       0.08333333 </v>
   <v>       0.41666667       0.25000000       0.08333333 </v>
   <v>      -0.41666667       0.25000000       0.08333333 </v>
   <v>      -0.25000000       0.25000000       0.08333333 </v>
   <v>       0.41666667       0.41666667       0.08333333 </v>
   <v>      -0.41666667       0.41666667       0.08333333 </v>
   <v>       0.08333333       0.08333333       0.25000000 </v>
   <v>       0.25000000       0.08333333       0.25000000 </v>
   <v>       0.41666667       0.08333333       0.25000000 </v>
   <v>      -0.41666667       0.08333333       0.25000000 </v>
   <v>      -0.25000000       0.08333333       0.25000000 </v>
   <v>      -0.08333333       0.08333333       0.25000000 </v>
   <v>       0.25000000       0.25000000       0.25000000 </v>
   <v>       0.41666667       0.25000000       0.25000000 </v>
   <v>      -0.41666667       0.25000000       0.25000000 </v>
   <v>      -0.25000000       0.25000000       0.25000000 </v>
   <v>       0.41666667       0.41666667       0.25000000 </v>
   <v>      -0.41666667       0.41666667       0.25000000 </v>
   <v>       0.08333333       0.08333333       0.41666667 </v>
   <v>       0.25000000       0.08333333       0.41666667 </v>
   <v>       0.41666667       0.08333333       0.41666667 </v>
   <v>      -0.41666667       0.08333333       0.41666667 </v>
   <v>      -0.25000000       0.08333333       0.41666667 </v>
   <v>      -0.08333333       0.08333333       0.41666667 </v>
   <v>       0.25000000       0.25000000       0.41666667 </v>
   <v>       0.41666667       0.25000000       0.41666667 </v>
   <v>      -0.41666667       0.25000000       0.41666667 </v>
   <v>      -0.25000000       0.25000000       0.41666667 </v>
   <v>       0.41666667       0.41666667       0.41666667 </v>
   <v>      -0.41666667       0.41666667       0.41666667 </v>
  </varray>
  <varray name="weights" >
   <v>       0.01851852 </v>
   <v>       0.03703704 </v>
   <v>       0.03703704 </v>
   <v>       0.03703704 </v>
   <v>       0.03703704 </v>
   <v>       0.01851852 </v>
   <v>       0.01851852 </v>
   <v>       0.03703704 </v>
   <v>       0.03703704 </v>
   <v>       0.01851852 </v>
   <v>       0.01851852 </v>
   <v>       0.01851852 </v>
   <v>       0.01851852 </v>
   <v>       0.03703704 </v>
   <v>       0.03703704 </v>
   <v>       0.03703704 </v>
   <v>       0.03703704 </v>
   <v>       0.01851852 </v>
   <v>       0.01851852 </v>
   <v>       0.03703704 </v>
   <v>       0.03703704 </v>
   <v>       0.01851852 </v>
   <v>       0.01851852 </v>
   <v>       0.01851852 </v>
   <v>       0.01851852 </v>
   <v>       0.03703704 </v>
   <v>       0.03703704 </v>
   <v>       0.03703704 </v>
   <v>       0.03703704 </v>
   <v>       0.01851852 </v>
   <v>       0.01851852 </v>
   <v>       0.03703704 </v>
   <v>       0.03703704 </v>
   <v>       0.01851852 </v>
   <v>       0.01851852 </v>
   <v>       0.01851852 </v>
  </varray>
 </kpoints>
 <parameters>
  <separator name="general" >
   <i type="string" name="SYSTEM">Si beta-tin</i>
   <i type="logical" name="LCOMPAT"> F  </i>
  </separator>
  <separator name="electronic" >
   <i type="string" name="PREC">accura</i>
   <i name="ENMAX">    450.00000000</i>
   <i name="ENAUG">    322.06900000</i>
   <i name="EDIFF">      0.00001000</i>
   <i type="int" name="IALGO">    38</i>
   <i type="int" name="IWAVPR">    11</i>
   <i type="int" name="NBANDS">     8</i>
   <i name="NELECT">      8.00000000</i>
   <i type="int" name="TURBO">     0</i>
   <i type="int" name="IRESTART">     0</i>
   <i type="int" name="NREBOOT">     0</i>
   <i type="int" name="NMIN">     0</i>
   <i name="EREF">      0.00000000</i>
   <separator name="electronic smearing" >
    <i type="int" name="ISMEAR">     0</i>
    <i name="SIGMA">      0.10000000</i>
    <i name="KSPACING">      0.50000000</i>
    <i type="logical" name="KGAMMA"> T  </i>
   </separator>
   <separator name="electronic projectors" >
    <i type="logical" name="LREAL"> F  </i>
    <v name="ROPT">      0.00000000</v>
    <i type="int" name="LMAXPAW">  -100</i>
    <i type="int" name="LMAXMIX">     2</i>
    <i type="logical" name="NLSPLINE"> F  </i>
   </separator>
   <separator name="electronic startup" >
    <i type="int" name="ISTART">     0</i>
    <i type="int" name="ICHARG">     2</i>
    <i type="int" name="INIWAV">     1</i>
   </separator>
   <separator name="electronic spin" >
    <i type="int" name="ISPIN">     1</i>
    <i type="logical" name="LNONCOLLINEAR"> F  </i>
    <v name="MAGMOM">      1.00000000      1.00000000</v>
    <i name="NUPDOWN">     -1.00000000</i>
    <i type="logical" name="LSORBIT"> F  </i>
    <v name="SAXIS">      0.00000000      0.00000000      1.00000000</v>
    <i type="logical" name="LSPIRAL"> F  </i>
    <v name="QSPIRAL">      0.00000000      0.00000000      0.00000000</v>
    <i type="logical" name="LZEROZ"> F  </i>
   </separator>
   <separator name="electronic exchange-correlation" >
    <i type="logical" name="LASPH"> F  </i>
    <i type="logical" name="LMETAGGA"> F  </i>
   </separator>
   <separator name="electronic convergence" >
    <i type="int" name="NELM">    60</i>
    <i type="int" name="NELMDL">    -5</i>
    <i type="int" name="NELMIN">     2</i>
    <i name="ENINI">    450.00000000</i>
    <separator name="electronic convergence detail" >
     <i type="logical" name="LDIAG"> T  </i>
     <i type="logical" name="LSUBROT"> F  </i>
     <i name="WEIMIN">      0.00100000</i>
     <i name="EBREAK">      0.00000031</i>
     <i name="DEPER">      0.30000000</i>
     <i type="int" name="NRMM">     4</i>
     <i name="TIME">      0.40000000</i>
    </separator>
   </separator>
   <separator name="electronic mixer" >
    <i name="AMIX">      0.40000000</i>
    <i name="BMIX">      1.00000000</i>
    <i name="AMIN">      0.10000000</i>
    <i name="AMIX_MAG">      1.60000000</i>
    <i name="BMIX_MAG">      1.00000000</i>
    <separator name="electronic mixer details" >
     <i type="int" name="IMIX">     4</i>
     <i type="logical" name="MIXFIRST"> F  </i>
     <i type="int" name="MAXMIX">   -45</i>
     <i name="WC">    100.00000000</i>
     <i type="int" name="INIMIX">     1</i>
     <i type="int" name="MIXPRE">     1</i>
     <i type="int" name="MREMOVE">     5</i>
    </separator>
   </separator>
   <separator name="electronic dipolcorrection" >
    <i type="logical" name="LDIPOL"> F  </i>
    <i type="logical" name="LMONO"> F  </i>
    <i type="int" name="IDIPOL">     0</i>
    <i name="EPSILON">      1.00000000</i>
    <v name="DIPOL">   -100.00000000   -100.00000000   -100.00000000</v>
    <i name="EFIELD">      0.00000000</i>
   </separator>
  </separator>
  <separator name="grids" >
   <i type="int" name="NGX">    18</i>
   <i type="int" name="NGY">    18</i>
   <i type="int" name="NGZ">    28</i>
   <i type="int" name="NGXF">    36</i>
   <i type="int" name="NGYF">    36</i>
   <i type="int" name="NGZF">    56</i>
   <i type="logical" name="ADDGRID"> F  </i>
  </separator>
  <separator name="ionic" >
   <i type="int" name="NSW">   100</i>
   <i type="int" name="IBRION">     2</i>
   <i type="int" name="ISIF">     4</i>
   <i name="PSTRESS">      0.00000000</i>
   <i name="EDIFFG">     -0.01000000</i>
   <i type="int" name="NFREE">     1</i>
   <i name="POTIM">      0.50000000</i>
   <i name="SMASS">     -3.00000000</i>
   <i name="SCALEE">      1.00000000</i>
  </separator>
  <separator name="ionic md" >
   <i name="TEBEG">      0.00010000</i>
   <i name="TEEND">      0.00010000</i>
   <i type="int" name="NBLOCK">     1</i>
   <i type="int" name="KBLOCK">   100</i>
   <i type="int" name="NPACO">   256</i>
   <i name="APACO">     16.00000000</i>
  </separator>
  <separator name="symmetry" >
   <i type="int" name="ISYM">     2</i>
   <i name="SYMPREC">      0.00001000</i>
  </separator>
  <separator name="dos" >
   <i type="logical" name="LORBIT"> F  </i>
   <v name="RWIGS">     -1.00000000</v>
   <i type="int" name="NEDOS">   301</i>
   <i name="EMIN">     10.00000000</i>
   <i name="EMAX">    -10.00000000</i>
   <i name="EFERMI">      0.00000000</i>
  </separator>
  <separator name="writing" >
   <i type="int" name="NWRITE">     2</i>
   <i type="logical" name="LWAVE"> T  </i>
   <i type="logical" name="LCHARG"> T  </i>
   <i type="logical" name="LPARD"> F  </i>
   <i type="logical" name="LVTOT"> F  </i>
   <i type="logical" name="LVHAR"> F  </i>
   <i type="logical" name="LELF"> F  </i>
   <i type="logical" name="LOPTICS"> F  </i>
   <v name="STM">      0.00000000      0.00000000      0.00000000      0.00000000      0.00000000      0.00000000      0.00000000</v>
  </separator>
  <separator name="performance" >
   <i type="int" name="NPAR">     4</i>
   <i type="int" name="NSIM">     4</i>
   <i type="int" name="NBLK">    -1</i>
   <i type="logical" name="LPLANE"> T  </i>
   <i type="logical" name="LSCALAPACK"> F  </i>
   <i type="logical" name="LSCAAWARE"> F  </i>
   <i type="logical" name="LSCALU"> F  </i>
   <i type="logical" name="LASYNC"> F  </i>
   <i type="logical" name="LORBITALREAL"> F  </i>
  </separator>
  <separator name="miscellaneous" >
   <i type="int" name="IDIOT">     3</i>
   <i type="logical" name="LMUSIC"> F  </i>
   <v name="POMASS">     28.08500000</v>
   <v name="DARWINR">      0.00000000</v>
   <v name="DARWINV">      1.00000000</v>
   <i type="logical" name="LCORR"> T  </i>
  </separator>
  <i type="logical" name="GGA_COMPAT"> T  </i>
  <i type="logical" name="LBERRY"> F  </i>
  <i type="int" name="ICORELEVEL">     0</i>
  <i type="logical" name="LDAU"> F  </i>
  <i type="int" name="I_CONSTRAINED_M">     0</i>
  <separator name="electronic exchange-correlation" >
   <i type="string" name="GGA">--</i>
   <i type="int" name="VOSKOWN">     0</i>
   <i type="logical" name="LHFCALC"> F  </i>
   <i type="string" name="PRECFOCK"></i>
   <i type="logical" name="LSYMGRAD"> F  </i>
   <i type="logical" name="LHFONE"> F  </i>
   <i type="logical" name="LRHFCALC"> F  </i>
   <i type="logical" name="LTHOMAS"> F  </i>
   <i type="logical" name="LMODELHF"> F  </i>
   <i name="ENCUT4O">     -1.00000000</i>
   <i type="int" name="EXXOEP">     0</i>
   <i type="int" name="FOURORBIT">     0</i>
   <i name="AEXX">      0.00000000</i>
   <i name="HFALPHA">      0.00000000</i>
   <i name="MCALPHA">      0.00000000</i>
   <i name="ALDAX">      1.00000000</i>
   <i name="AGGAX">      1.00000000</i>
   <i name="ALDAC">      1.00000000</i>
   <i name="AGGAC">      1.00000000</i>
   <i type="int" name="NKREDX">     1</i>
   <i type="int" name="NKREDY">     1</i>
   <i type="int" name="NKREDZ">     1</i>
   <i type="logical" name="SHIFTRED"> F  </i>
   <i type="logical" name="ODDONLY"> F  </i>
   <i type="logical" name="EVENONLY"> F  </i>
   <i type="int" name="LMAXFOCK">     0</i>
   <i type="int" name="NMAXFOCKAE">     0</i>
   <i type="logical" name="LFOCKAEDFT"> F  </i>
   <i name="HFSCREEN">      0.00000000</i>
   <i name="HFSCREENC">      0.00000000</i>
   <i type="int" name="NBANDSGWLOW">     0</i>
  </separator>
  <separator name="vdW DFT" >
   <i type="logical" name="LUSE_VDW"> F  </i>
   <i name="Zab_VDW">     -0.84910000</i>
   <i name="PARAM1">      0.12340000</i>
   <i name="PARAM2">      1.00000000</i>
   <i name="PARAM3">      0.00000000</i>
  </separator>
  <separator name="model GW" >
   <i type="int" name="MODEL_GW">     0</i>
   <i name="MODEL_EPS0">      6.62911324</i>
   <i name="MODEL_ALPHA">      1.00000000</i>
  </separator>
  <separator name="linear response parameters" >
   <i type="logical" name="LEPSILON"> F  </i>
   <i type="logical" name="LRPA"> F  </i>
   <i type="logical" name="LNABLA"> F  </i>
   <i type="logical" name="LVEL"> F  </i>
   <i type="int" name="KINTER">     0</i>
   <i name="CSHIFT">      0.10000000</i>
   <i name="OMEGAMAX">     -1.00000000</i>
   <i name="DEG_THRESHOLD">      0.00200000</i>
  </separator>
  <separator name="orbital magnetization" >
   <i type="logical" name="NUCIND"> F  </i>
   <v name="MAGPOS">      0.00000000      0.00000000      0.00000000</v>
   <i type="logical" name="LNICSALL"> T  </i>
   <i type="logical" name="ORBITALMAG"> F  </i>
   <i type="logical" name="LMAGBLOCH"> F  </i>
   <i type="logical" name="LCHIMAG"> F  </i>
   <i type="logical" name="LGAUGE"> T  </i>
   <i type="int" name="MAGATOM">     0</i>
   <v name="MAGDIPOL">      0.00000000      0.00000000      0.00000000</v>
   <v name="AVECCONST">      0.00000000      0.00000000      0.00000000</v>
  </separator>
  <separator name="response functions" >
   <i type="logical" name="LADDER"> F  </i>
   <i type="logical" name="LFXC"> F  </i>
   <i type="logical" name="LHARTREE"> T  </i>
   <i type="int" name="IBSE">     0</i>
   <v type="int" name="KPOINT">    -1     0     0     0</v>
   <i type="logical" name="LTCTE"> F  </i>
   <i type="logical" name="LTETE"> F  </i>
   <i type="logical" name="LTRIPLET"> F  </i>
   <i type="logical" name="LFXCEPS"> F  </i>
   <i type="logical" name="LFXHEG"> F  </i>
   <i type="int" name="NATURALO">     0</i>
   <i type="logical" name="L2ORDER"> F  </i>
   <i type="logical" name="LUSEW"> F  </i>
   <i name="ENCUTGW">     -2.00000000</i>
   <i name="ENCUTGWSOFT">     -2.00000000</i>
   <i name="ENCUTLF">     -1.00000000</i>
   <i type="int" name="LMAXMP2">    -1</i>
   <i name="SCISSOR">      0.00000000</i>
   <i type="int" name="NOMEGA">     0</i>
   <i type="int" name="NOMEGAR">     0</i>
   <i type="int" name="NBANDSGW">    -1</i>
   <i type="int" name="NBANDSO">    -1</i>
   <i type="int" name="NBANDSV">    -1</i>
   <i type="int" name="NELM">     1</i>
   <i type="int" name="NELMHF">     1</i>
   <i type="int" name="DIM">     3</i>
   <i type="int" name="ANTIRES">     0</i>
   <i name="OMEGAMAX">    -30.00000000</i>
   <i name="OMEGAMIN">    -30.00000000</i>
   <i name="OMEGATL">   -200.00000000</i>
   <i type="int" name="OMEGAGRID">     0</i>
   <i name="CSHIFT">     -0.10000000</i>
   <i type="logical" name="SELFENERGY"> F  </i>
   <i type="logical" name="LSPECTRAL"> F  </i>
   <i type="logical" name="LSPECTRALGW"> F  </i>
   <i type="logical" name="LSINGLES"> F  </i>
   <i type="logical" name="LFERMIGW"> F  </i>
   <i type="logical" name="ODDONLYGW"> F  </i>
   <i type="logical" name="EVENONLYGW"> F  </i>
   <i type="int" name="NKREDLFX">     1</i>
   <i type="int" name="NKREDLFY">     1</i>
   <i type="int" name="NKREDLFZ">     1</i>
   <i type="int" name="MAXMEM">  1800</i>
   <i type="int" name="TELESCOPE">     0</i>
   <i type="int" name="TAUPAR">     1</i>
   <i type="int" name="OMEGAPAR">    -1</i>
   <i name="LAMBDA">      1.00000000</i>
  </separator>
  <separator name="External order field" >
   <i name="OFIELD_KAPPA">      0.00000000</i>
   <v name="OFIELD_K">      0.00000000      0.00000000      0.00000000</v>
   <i name="OFIELD_Q6_NEAR">      0.00000000</i>
   <i name="OFIELD_Q6_FAR">      0.00000000</i>
   <i name="OFIELD_A">      0.00000000</i>
  </separator>
 </parameters>
 <atominfo>
  <atoms>       2 </atoms>
  <types>       1 </types>
  <array name="atoms" >
   <dimension dim="1">ion</dimension>
   <field type="string">element</field>
   <field type="int">atomtype</field>
   <set>
    <rc><c> S</c><c>   1</c></rc>
    <rc><c> S</c><c>   1</c></rc>
   </set>
  </array>
  <array name="atomtypes" >
   <dimension dim="1">type</dimension>
   <field type="int">atomspertype</field>
   <field type="string">element</field>
   <field>mass</field>
   <field>valence</field>
   <field type="string">pseudopotential</field>
   <set>
    <rc><c>   2</c><c> S</c><c>     28.08500000</c><c>      4.00000000</c><c>  PAW_PBE Si 05Jan2001                  </c></rc>
   </set>
  </array>
 </atominfo>
 <structure name="initialpos" >
  <crystal>
   <varray name="basis" >
    <v>       2.50000000       0.00000000       0.00000000 </v>
    <v>      -1.25000000       2.16506351       0.00000000 </v>
    <v>       0.00000000       0.00000000       4.08247500 </v>
   </varray>
   <i name="volume">     22.09704413 </i>
   <varray name="rec_basis" >
    <v>       0.40000000       0.23094011       0.00000000 </v>
    <v>       0.00000000       0.46188022       0.00000000 </v>
    <v>       0.00000000       0.00000000       0.24494945 </v>
   </varray>
  </crystal>
  <varray name="positions" >
   <v>       0.00000000       0.00000000       0.00000000 </v>
   <v>       0.33333333       0.66666667       0.50000000 </v>
  </varray>
 </structure>
 <calculation>
  <scstep>
   <time name="dav">    1.23    0.78</time>
   <time name="total">    1.27    0.80</time>
   <energy>
    <i name="alphaZ">      6.09368938 </i>
    <i name="ewald">   -298.76547367 </i>
    <i name="hartreedc">     -0.45966938 </i>
    <i name="XCdc">    -16.07396442 </i>
    <i name="pawpsdc">    176.24759923 </i>
    <i name="pawaedc">   -141.06103558 </i>
    <i name="eentropy">     -0.00441283 </i>
    <i name="bandstr">     71.60802573 </i>
    <i name="atom">    206.13192747 </i>
    <i name="e_fr_energy">      3.71668594 </i>
    <i name="e_wo_entrp">      3.72109877 </i>
    <i name="e_0_energy">      3.71889236 </i>
   </energy>
  </scstep>
  <scstep>
   <time name="dav">    1.74    1.09</time>
   <time name="total">    1.74    1.10</time>
   <energy>
    <i name="e_fr_energy">     -9.13252157 </i>
    <i name="e_wo_entrp">     -9.12851268 </i>
    <i name="e_0_energy">     -9.13051713 </i>
   </energy>
  </scstep>
  <scstep>
   <time name="dav">    1.42    0.92</time>
   <time name="total">    1.43    0.93</time>
   <energy>
    <i name="e_fr_energy">     -9.24597355 </i>
    <i name="e_wo_entrp">     -9.24151809 </i>
    <i name="e_0_energy">     -9.24374582 </i>
   </energy>
  </scstep>
  <scstep>
   <time name="dav">    1.86    1.16</time>
   <time name="total">    1.87    1.16</time>
   <energy>
    <i name="e_fr_energy">     -9.24621117 </i>
    <i name="e_wo_entrp">     -9.24175441 </i>
    <i name="e_0_energy">     -9.24398279 </i>
   </energy>
  </scstep>
  <scstep>
   <time name="dav">    1.84    1.16</time>
   <time name="total">    1.85    1.17</time>
   <energy>
    <i name="e_fr_energy">     -9.24621138 </i>
    <i name="e_wo_entrp">     -9.24175461 </i>
    <i name="e_0_energy">     -9.24398300 </i>
   </energy>
  </scstep>
  <scstep>
   <time name="dav">    1.26    0.77</time>
   <time name="total">    1.33    0.81</time>
   <energy>
    <i name="e_fr_energy">     -9.20515929 </i>
    <i name="e_wo_entrp">     -9.20084467 </i>
    <i name="e_0_energy">     -9.20300198 </i>
   </energy>
  </scstep>
  <scstep>
   <time name="dav">    1.69    1.09</time>
   <time name="total">    1.76    1.14</time>
   <energy>
    <i name="e_fr_energy">     -9.18045258 </i>
    <i name="e_wo_entrp">     -9.17633089 </i>
    <i name="e_0_energy">     -9.17839173 </i>
   </energy>
  </scstep>
  <scstep>
   <time name="dav">    1.93    1.23</time>
   <time name="total">    2.00    1.28</time>
   <energy>
    <i name="e_fr_energy">     -9.18021305 </i>
    <i name="e_wo_entrp">     -9.17610351 </i>
    <i name="e_0_energy">     -9.17815828 </i>
   </energy>
  </scstep>
  <scstep>
   <time name="dav">    1.48    0.94</time>
   <time name="total">    1.52    0.97</time>
   <energy>
    <i name="alphaZ">      6.09368938 </i>
    <i name="ewald">   -298.76547367 </i>
    <i name="hartreedc">     -0.51067288 </i>
    <i name="XCdc">    -15.78706501 </i>
    <i name="pawpsdc">   1169.02549244 </i>
    <i name="pawaedc">  -1134.00653424 </i>
    <i name="eentropy">     -0.00410677 </i>
    <i name="bandstr">     58.64253216 </i>
    <i name="atom">    206.13192747 </i>
    <i name="e_fr_energy">     -9.18021110 </i>
    <i name="e_wo_entrp">     -9.17610433 </i>
    <i name="e_0_energy">     -9.17815771 </i>
   </energy>
  </scstep>
  <structure>
   <crystal>
    <varray name="basis" >
     <v>       2.50000000       0.00000000       0.00000000 </v>
     <v>      -1.25000000       2.16506351       0.00000000 </v>
     <v>       0.00000000       0.00000000       4.08247500 </v>
    </varray>
    <i name="volume">     22.09704413 </i>
    <varray name="rec_basis" >
     <v>       0.40000000       0.23094011       0.00000000 </v>
     <v>       0.00000000       0.46188022       0.00000000 </v>
     <v>       0.00000000       0.00000000       0.24494945 </v>
    </varray>
   </crystal>
   <varray name="positions" >
    <v>       0.00000000       0.00000000       0.00000000 </v>
    <v>       0.33333333       0.66666667       0.50000000 </v>
   </varray>
  </structure>
  <varray name="forces" >
   <v>      -0.00000000       0.00000000       0.00000000 </v>
   <v>       0.00000000      -0.00000000       0.00000000 </v>
  </varray>
  <varray name="stress" >
   <v>     433.40077568      -0.00000000      -0.00000000 </v>
   <v>       0.00000000     433.40077568       0.00000000 </v>
   <v>       0.00000000       0.00000000     397.95467862 </v>
  </varray>
  <energy>
   <i name="e_fr_energy">     -9.18021110 </i>
   <i name="e_wo_entrp">     -9.17815771 </i>
   <i name="e_0_energy">     -0.00410677 </i>
  </energy>
  <time name="totalsc">   15.53    9.80</time>
 </calculation>
 <calculation>
  <scstep>
   <time name="dav">    2.09    1.27</time>
   <time name="total">    2.14    1.30</time>
   <energy>
    <i name="alphaZ">      6.09368938 </i>
    <i name="ewald">   -298.75809438 </i>
    <i name="hartreedc">     -0.51075159 </i>
    <i name="XCdc">    -15.78732504 </i>
    <i name="pawpsdc">   1170.11624187 </i>
    <i name="pawaedc">  -1135.09671648 </i>
    <i name="eentropy">     -0.00584771 </i>
    <i name="bandstr">     58.63488220 </i>
    <i name="atom">    206.13192747 </i>
    <i name="e_fr_energy">     -9.18199426 </i>
    <i name="e_wo_entrp">     -9.17614655 </i>
    <i name="e_0_energy">     -9.17907040 </i>
   </energy>
  </scstep>
  <scstep>
   <time name="dav">    1.31    0.83</time>
   <time name="total">    1.37    0.87</time>
   <energy>
    <i name="e_fr_energy">     -9.18135808 </i>
    <i name="e_wo_entrp">     -9.17552364 </i>
    <i name="e_0_energy">     -9.17844086 </i>
   </energy>
  </scstep>
  <scstep>
   <time name="dav">    2.10    1.29</time>
   <time name="total">    2.17    1.34</time>
   <energy>
    <i name="e_fr_energy">     -9.18105965 </i>
    <i name="e_wo_entrp">     -9.17524129 </i>
    <i name="e_0_energy">     -9.17815047 </i>
   </energy>
  </scstep>
  <scstep>
   <time name="dav">    1.57    1.06</time>
   <time name="total">    1.62    1.09</time>
   <energy>
    <i name="alphaZ">      6.09368938 </i>
    <i name="ewald">   -298.75809438 </i>
    <i name="hartreedc">     -0.51218556 </i>
    <i name="XCdc">    -15.78750009 </i>
    <i name="pawpsdc">   1168.96111579 </i>
    <i name="pawaedc">  -1133.94163871 </i>
    <i name="eentropy">     -0.00581839 </i>
    <i name="bandstr">     58.63744272 </i>
    <i name="atom">    206.13192747 </i>
    <i name="e_fr_energy">     -9.18106177 </i>
    <i name="e_wo_entrp">     -9.17524338 </i>
    <i name="e_0_energy">     -9.17815258 </i>
   </energy>
  </scstep>
  <structure>
   <crystal>
    <varray name="basis" >
     <v>       2.50986568      -0.00000000      -0.00000000 </v>
     <v>      -1.25493284       2.17360744       0.00000000 </v>
     <v>       0.00000000       0.00000000       4.05044362 </v>
    </varray>
    <i name="volume">     22.09704413 </i>
    <varray name="rec_basis" >
     <v>       0.39842770       0.23003234      -0.00000000 </v>
     <v>       0.00000000       0.46006468      -0.00000000 </v>
     <v>       0.00000000       0.00000000       0.24688654 </v>
    </varray>
   </crystal>
   <varray name="positions" >
    <v>      -0.00000000       0.00000000       0.00000000 </v>
    <v>       0.33333333       0.66666667       0.50000000 </v>
   </varray>
  </structure>
  <varray name="forces" >
   <v>       0.00000000       0.00000000      -0.00000000 </v>
   <v>      -0.00000000      -0.00000000       0.00000000 </v>
  </varray>
  <varray name="stress" >
   <v>     419.52857820       0.00000000       0.00000000 </v>
   <v>       0.00000000     419.52857820       0.00000000 </v>
   <v>      -0.00000000       0.00000000     427.67212508 </v>
  </varray>
  <energy>
   <i name="e_fr_energy">     -9.18106177 </i>
   <i name="e_wo_entrp">     -9.17815258 </i>
   <i name="e_0_energy">     -0.00581839 </i>
  </energy>
  <time name="totalsc">    7.90    5.00</time>
 </calculation>
 <calculation>
  <scstep>
   <time name="dav">    2.62    1.68</time>
   <time name="total">    2.73    1.75</time>
   <energy>
    <i name="alphaZ">      6.09368938 </i>
    <i name="ewald">   -298.76219598 </i>
    <i name="hartreedc">     -0.51192082 </i>
    <i name="XCdc">    -15.78750087 </i>
    <i name="pawpsdc">   1168.88323133 </i>
    <i name="pawaedc">  -1133.86375608 </i>
    <i name="eentropy">     -0.00450493 </i>
    <i name="bandstr">     58.63953993 </i>
    <i name="atom">    206.13192747 </i>
    <i name="e_fr_energy">     -9.18149056 </i>
    <i name="e_wo_entrp">     -9.17698563 </i>
    <i name="e_0_energy">     -9.17923810 </i>
   </energy>
  </scstep>
  <scstep>
   <time name="dav">    2.03    1.26</time>
   <time name="total">    2.10    1.31</time>
   <energy>
    <i name="e_fr_energy">     -9.18139759 </i>
    <i name="e_wo_entrp">     -9.17688499 </i>
    <i name="e_0_energy">     -9.17914129 </i>
   </energy>
  </scstep>
  <scstep>
   <time name="dav">    2.21    1.39</time>
   <time name="total">    2.28    1.44</time>
   <energy>
    <i name="e_fr_energy">     -9.18135397 </i>
    <i name="e_wo_entrp">     -9.17683208 </i>
    <i name="e_0_energy">     -9.17909303 </i>
   </energy>
  </scstep>
  <scstep>
   <time name="dav">    1.39    0.83</time>
   <time name="total">    1.44    0.87</time>
   <energy>
    <i name="alphaZ">      6.09368938 </i>
    <i name="ewald">   -298.76219598 </i>
    <i name="hartreedc">     -0.51103801 </i>
    <i name="XCdc">    -15.78746666 </i>
    <i name="pawpsdc">   1168.89096619 </i>
    <i name="pawaedc">  -1133.87137470 </i>
    <i name="eentropy">     -0.00452182 </i>
    <i name="bandstr">     58.63865988 </i>
    <i name="atom">    206.13192747 </i>
    <i name="e_fr_energy">     -9.18135425 </i>
    <i name="e_wo_entrp">     -9.17683244 </i>
    <i name="e_0_energy">     -9.17909334 </i>
   </energy>
  </scstep>
  <structure>
   <crystal>
    <varray name="basis" >
     <v>       2.50616784      -0.00000000      -0.00000000 </v>
     <v>      -1.25308392       2.17040501       0.00000000 </v>
     <v>       0.00000000       0.00000000       4.06240527 </v>
    </varray>
    <i name="volume">     22.09704413 </i>
    <varray name="rec_basis" >
     <v>       0.39901557       0.23037175      -0.00000000 </v>
     <v>       0.00000000       0.46074350      -0.00000000 </v>
     <v>       0.00000000       0.00000000       0.24615959 </v>
    </varray>
   </crystal>
   <varray name="positions" >
    <v>      -0.00000000       0.00000000       0.00000000 </v>
    <v>       0.33333333       0.66666667       0.50000000 </v>
   </varray>
  </structure>
  <varray name="forces" >
   <v>      -0.00000000       0.00000000      -0.00000000 </v>
   <v>       0.00000000       0.00000000       0.00000000 </v>
  </varray>
  <varray name="stress" >
   <v>     421.03949485       0.00000000      -0.00000000 </v>
   <v>       0.00000000     421.03949485       0.00000000 </v>
   <v>       0.00000000       0.00000000     423.26025666 </v>
  </varray>
  <energy>
   <i name="e_fr_energy">     -9.18135425 </i>
   <i name="e_wo_entrp">     -9.17909334 </i>
   <i name="e_0_energy">     -0.00452182 </i>
  </energy>
  <time name="totalsc">    9.21    5.76</time>
 </calculation>
 <calculation>
  <scstep>
   <time name="dav">    2.65    1.64</time>
   <time name="total">    2.72    1.69</time>
   <energy>
    <i name="alphaZ">      6.09368938 </i>
    <i name="ewald">   -298.76251449 </i>
    <i name="hartreedc">     -0.51109177 </i>
    <i name="XCdc">    -15.78745330 </i>
    <i name="pawpsdc">   1168.89383519 </i>
    <i name="pawaedc">  -1133.87423720 </i>
    <i name="eentropy">     -0.00442546 </i>
    <i name="bandstr">     58.63890919 </i>
    <i name="atom">    206.13192747 </i>
    <i name="e_fr_energy">     -9.18136098 </i>
    <i name="e_wo_entrp">     -9.17693553 </i>
    <i name="e_0_energy">     -9.17914826 </i>
   </energy>
  </scstep>
  <scstep>
   <time name="dav">    1.19    0.73</time>
   <time name="total">    1.26    0.77</time>
   <energy>
    <i name="alphaZ">      6.09368938 </i>
    <i name="ewald">   -298.76251449 </i>
    <i name="hartreedc">     -0.51105696 </i>
    <i name="XCdc">    -15.78745288 </i>
    <i name="pawpsdc">   1168.89322811 </i>
    <i name="pawaedc">  -1133.87363411 </i>
    <i name="eentropy">     -0.00442620 </i>
    <i name="bandstr">     58.63887949 </i>
    <i name="atom">    206.13192747 </i>
    <i name="e_fr_energy">     -9.18136018 </i>
    <i name="e_wo_entrp">     -9.17693398 </i>
    <i name="e_0_energy">     -9.17914708 </i>
   </energy>
  </scstep>
  <structure>
   <crystal>
    <varray name="basis" >
     <v>       2.50580335      -0.00000000      -0.00000000 </v>
     <v>      -1.25290167       2.17008936       0.00000000 </v>
     <v>       0.00000000       0.00000000       4.06358718 </v>
    </varray>
    <i name="volume">     22.09704413 </i>
    <varray name="rec_basis" >
     <v>       0.39907361       0.23040526      -0.00000000 </v>
     <v>       0.00000000       0.46081052      -0.00000000 </v>
     <v>       0.00000000       0.00000000       0.24608799 </v>
    </varray>
   </crystal>
   <varray name="positions" >
    <v>      -0.00000000       0.00000000       0.00000000 </v>
    <v>       0.33333333       0.66666667       0.50000000 </v>
   </varray>
  </structure>
  <varray name="forces" >
   <v>      -0.00000000       0.00000000      -0.00000000 </v>
   <v>       0.00000000      -0.00000000       0.00000000 </v>
  </varray>
  <varray name="stress" >
   <v>     421.47983135      -0.00000000       0.00000000 </v>
   <v>      -0.00000000     421.47983135       0.00000000 </v>
   <v>      -0.00000000       0.00000000     422.29270117 </v>
  </varray>
  <energy>
   <i name="e_fr_energy">     -9.18136018 </i>
   <i name="e_wo_entrp">     -9.17914708 </i>
   <i name="e_0_energy">     -0.00442620 </i>
  </energy>
  <time name="totalsc">    4.53    2.81</time>
  <eigenvalues>
   <array>
    <dimension dim="1">band</dimension>
    <dimension dim="2">kpoint</dimension>
    <dimension dim="3">spin</dimension>
    <field>eigene</field>
    <field>occ</field>
    <set>
     <set comment="spin 1">
      <set comment="kpoint 1">
       <r>   -2.3553    1.0000 </r>
       <r>    4.7955    1.0000 </r>
       <r>    7.6159    1.0000 </r>
       <r>   19.4716    0.0000 </r>
       <r>   19.5198    0.0000 </r>
       <r>   25.5435    0.0000 </r>
       <r>   25.7655    0.0000 </r>
       <r>   25.8837    0.0000 </r>
      </set>
      <set comment="kpoint 2">
       <r>   -0.2350    1.0000 </r>
       <r>    6.8032    1.0000 </r>
       <r>    9.5133    1.0000 </r>
       <r>   12.3074    1.0000 </r>
       <r>   16.7487    0.0000 </r>
       <r>   18.9685    0.0000 </r>
       <r>   21.3507    0.0000 </r>
       <r>   23.6929    0.0000 </r>
      </set>
      <set comment="kpoint 3">
       <r>    3.5057    1.0000 </r>
       <r>    5.9525    1.0000 </r>
       <r>   10.4739    1.0000 </r>
       <r>   12.5586    1.0000 </r>
       <r>   13.5580    1.0000 </r>
       <r>   15.2613    0.0000 </r>
       <r>   16.5432    0.0000 </r>
       <r>   22.4852    0.0000 </r>
      </set>
      <set comment="kpoint 4">
       <r>    1.4411    1.0000 </r>
       <r>    8.1042    1.0000 </r>
       <r>    9.1011    1.0000 </r>
       <r>   11.3705    1.0000 </r>
       <r>   15.3913    0.0000 </r>
       <r>   16.4480    0.0000 </r>
       <r>   18.5610    0.0000 </r>
       <r>   22.8787    0.0000 </r>
      </set>
      <set comment="kpoint 5">
       <r>   -1.5039    1.0000 </r>
       <r>    5.6062    1.0000 </r>
       <r>    8.4052    1.0000 </r>
       <r>   15.7348    0.0000 </r>
       <r>   17.9686    0.0000 </r>
       <r>   22.2449    0.0000 </r>
       <r>   24.0192    0.0000 </r>
       <r>   25.1511    0.0000 </r>
      </set>
      <set comment="kpoint 6">
       <r>   -2.7826    1.0000 </r>
       <r>    4.3877    1.0000 </r>
       <r>    7.2156    1.0000 </r>
       <r>   21.3188    0.0000 </r>
       <r>   22.7122    0.0000 </r>
       <r>   24.5072    0.0000 </r>
       <r>   26.7802    0.0000 </r>
       <r>   27.1697    0.0000 </r>
      </set>
      <set comment="kpoint 7">
       <r>    2.6871    1.0000 </r>
       <r>    9.0680    1.0000 </r>
       <r>   10.1492    1.0000 </r>
       <r>   10.3606    1.0000 </r>
       <r>   12.6997    1.0000 </r>
       <r>   16.6068    0.0000 </r>
       <r>   17.3754    0.0000 </r>
       <r>   19.9593    0.0000 </r>
      </set>
      <set comment="kpoint 8">
       <r>    4.7343    1.0000 </r>
       <r>    7.1514    1.0000 </r>
       <r>    9.5045    1.0000 </r>
       <r>   11.7865    1.0000 </r>
       <r>   13.6787    1.0000 </r>
       <r>   14.8890    0.0000 </r>
       <r>   16.5036    0.0000 </r>
       <r>   17.8186    0.0000 </r>
      </set>
      <set comment="kpoint 9">
       <r>    1.0241    1.0000 </r>
       <r>    7.9566    1.0000 </r>
       <r>   10.2768    1.0000 </r>
       <r>   11.4715    1.0000 </r>
       <r>   13.4318    1.0000 </r>
       <r>   17.7637    0.0000 </r>
       <r>   19.6675    0.0000 </r>
       <r>   21.1466    0.0000 </r>
      </set>
      <set comment="kpoint 10">
       <r>   -1.0799    1.0000 </r>
       <r>    6.0080    1.0000 </r>
       <r>    8.7873    1.0000 </r>
       <r>   13.8170    1.0000 </r>
       <r>   19.8157    0.0000 </r>
       <r>   20.1697    0.0000 </r>
       <r>   21.8872    0.0000 </r>
       <r>   23.3269    0.0000 </r>
      </set>
      <set comment="kpoint 11">
       <r>    5.0040    1.0000 </r>
       <r>    5.2894    1.0000 </r>
       <r>   11.5066    1.0000 </r>
       <r>   12.2439    1.0000 </r>
       <r>   12.5590    1.0000 </r>
       <r>   14.8979    0.0000 </r>
       <r>   15.6451    0.0000 </r>
       <r>   19.6612    0.0000 </r>
      </set>
      <set comment="kpoint 12">
       <r>    2.2715    1.0000 </r>
       <r>    7.0966    1.0000 </r>
       <r>    9.3644    1.0000 </r>
       <r>   12.0301    1.0000 </r>
       <r>   14.2540    0.0490 </r>
       <r>   16.7688    0.0000 </r>
       <r>   18.3678    0.0000 </r>
       <r>   20.9098    0.0000 </r>
      </set>
      <set comment="kpoint 13">
       <r>   -1.8687    1.0000 </r>
       <r>    2.4493    1.0000 </r>
       <r>   10.8027    1.0000 </r>
       <r>   19.8209    0.0000 </r>
       <r>   19.8812    0.0000 </r>
       <r>   22.6509    0.0000 </r>
       <r>   23.7808    0.0000 </r>
       <r>   24.0461    0.0000 </r>
      </set>
      <set comment="kpoint 14">
       <r>    0.2455    1.0000 </r>
       <r>    4.5027    1.0000 </r>
       <r>   12.0949    1.0000 </r>
       <r>   13.2375    1.0000 </r>
       <r>   16.4132    0.0000 </r>
       <r>   17.6395    0.0000 </r>
       <r>   21.2223    0.0000 </r>
       <r>   23.8944    0.0000 </r>
      </set>
      <set comment="kpoint 15">
       <r>    3.9710    1.0000 </r>
       <r>    6.3460    1.0000 </r>
       <r>    8.3333    1.0000 </r>
       <r>   10.6392    1.0000 </r>
       <r>   15.6697    0.0000 </r>
       <r>   16.8678    0.0000 </r>
       <r>   18.7234    0.0000 </r>
       <r>   20.5821    0.0000 </r>
      </set>
      <set comment="kpoint 16">
       <r>    1.9163    1.0000 </r>
       <r>    6.0925    1.0000 </r>
       <r>    9.3744    1.0000 </r>
       <r>   13.1982    1.0000 </r>
       <r>   14.5744    0.0000 </r>
       <r>   16.7521    0.0000 </r>
       <r>   20.2807    0.0000 </r>
       <r>   21.8362    0.0000 </r>
      </set>
      <set comment="kpoint 17">
       <r>   -1.0197    1.0000 </r>
       <r>    3.2754    1.0000 </r>
       <r>   11.5467    1.0000 </r>
       <r>   16.1660    0.0000 </r>
       <r>   18.3195    0.0000 </r>
       <r>   20.2014    0.0000 </r>
       <r>   22.3411    0.0000 </r>
       <r>   23.5098    0.0000 </r>
      </set>
      <set comment="kpoint 18">
       <r>   -2.2948    1.0000 </r>
       <r>    2.0342    1.0000 </r>
       <r>   10.4177    1.0000 </r>
       <r>   21.4452    0.0000 </r>
       <r>   22.4243    0.0000 </r>
       <r>   23.1189    0.0000 </r>
       <r>   25.0705    0.0000 </r>
       <r>   26.1439    0.0000 </r>
      </set>
      <set comment="kpoint 19">
       <r>    3.1576    1.0000 </r>
       <r>    7.2543    1.0000 </r>
       <r>   10.5223    1.0000 </r>
       <r>   10.5820    1.0000 </r>
       <r>   14.2253    0.1059 </r>
       <r>   14.6346    0.0000 </r>
       <r>   16.6181    0.0000 </r>
       <r>   22.5953    0.0000 </r>
      </set>
      <set comment="kpoint 20">
       <r>    5.1926    1.0000 </r>
       <r>    7.5233    1.0000 </r>
       <r>    9.2859    1.0000 </r>
       <r>   10.3321    1.0000 </r>
       <r>   11.9953    1.0000 </r>
       <r>   14.1889    0.2313 </r>
       <r>   18.0940    0.0000 </r>
       <r>   20.3016    0.0000 </r>
      </set>
      <set comment="kpoint 21">
       <r>    1.5007    1.0000 </r>
       <r>    5.7110    1.0000 </r>
       <r>   11.2772    1.0000 </r>
       <r>   13.3696    1.0000 </r>
       <r>   14.0984    0.7073 </r>
       <r>   15.9492    0.0000 </r>
       <r>   18.0495    0.0000 </r>
       <r>   23.4527    0.0000 </r>
      </set>
      <set comment="kpoint 22">
       <r>   -0.5969    1.0000 </r>
       <r>    3.6862    1.0000 </r>
       <r>   11.8660    1.0000 </r>
       <r>   14.3099    0.0072 </r>
       <r>   18.1653    0.0000 </r>
       <r>   20.2291    0.0000 </r>
       <r>   22.0617    0.0000 </r>
       <r>   23.9592    0.0000 </r>
      </set>
      <set comment="kpoint 23">
       <r>    5.4570    1.0000 </r>
       <r>    5.7331    1.0000 </r>
       <r>    9.6510    1.0000 </r>
       <r>   10.0158    1.0000 </r>
       <r>   13.0194    1.0000 </r>
       <r>   16.5156    0.0000 </r>
       <r>   18.2893    0.0000 </r>
       <r>   18.9535    0.0000 </r>
      </set>
      <set comment="kpoint 24">
       <r>    2.7433    1.0000 </r>
       <r>    6.7250    1.0000 </r>
       <r>    7.9612    1.0000 </r>
       <r>   11.7927    1.0000 </r>
       <r>   15.3103    0.0000 </r>
       <r>   18.7815    0.0000 </r>
       <r>   19.4976    0.0000 </r>
       <r>   21.4399    0.0000 </r>
      </set>
      <set comment="kpoint 25">
       <r>   -0.8997    1.0000 </r>
       <r>    0.5437    1.0000 </r>
       <r>   14.3680    0.0005 </r>
       <r>   18.1644    0.0000 </r>
       <r>   20.6509    0.0000 </r>
       <r>   20.9663    0.0000 </r>
       <r>   22.2476    0.0000 </r>
       <r>   22.4668    0.0000 </r>
      </set>
      <set comment="kpoint 26">
       <r>    1.2021    1.0000 </r>
       <r>    2.6261    1.0000 </r>
       <r>   13.3580    1.0000 </r>
       <r>   14.6069    0.0000 </r>
       <r>   16.4589    0.0000 </r>
       <r>   18.1784    0.0000 </r>
       <r>   19.6120    0.0000 </r>
       <r>   20.8421    0.0000 </r>
      </set>
      <set comment="kpoint 27">
       <r>    4.8875    1.0000 </r>
       <r>    6.1518    1.0000 </r>
       <r>    7.6187    1.0000 </r>
       <r>    8.8623    1.0000 </r>
       <r>   16.8878    0.0000 </r>
       <r>   18.0646    0.0000 </r>
       <r>   20.2960    0.0000 </r>
       <r>   22.2487    0.0000 </r>
      </set>
      <set comment="kpoint 28">
       <r>    2.8613    1.0000 </r>
       <r>    4.2638    1.0000 </r>
       <r>   10.2670    1.0000 </r>
       <r>   11.6021    1.0000 </r>
       <r>   17.0354    0.0000 </r>
       <r>   17.9372    0.0000 </r>
       <r>   19.2469    0.0000 </r>
       <r>   21.9734    0.0000 </r>
      </set>
      <set comment="kpoint 29">
       <r>   -0.0556    1.0000 </r>
       <r>    1.3804    1.0000 </r>
       <r>   14.9757    0.0000 </r>
       <r>   16.9338    0.0000 </r>
       <r>   18.2119    0.0000 </r>
       <r>   18.7177    0.0000 </r>
       <r>   20.2382    0.0000 </r>
       <r>   20.9707    0.0000 </r>
      </set>
      <set comment="kpoint 30">
       <r>   -1.3234    1.0000 </r>
       <r>    0.1236    1.0000 </r>
       <r>   14.0126    0.9607 </r>
       <r>   17.9296    0.0000 </r>
       <r>   22.6574    0.0000 </r>
       <r>   23.8233    0.0000 </r>
       <r>   23.9316    0.0000 </r>
       <r>   25.1457    0.0000 </r>
      </set>
      <set comment="kpoint 31">
       <r>    4.0923    1.0000 </r>
       <r>    5.4744    1.0000 </r>
       <r>   11.3084    1.0000 </r>
       <r>   11.3706    1.0000 </r>
       <r>   12.9858    1.0000 </r>
       <r>   13.0022    1.0000 </r>
       <r>   19.5873    0.0000 </r>
       <r>   23.1292    0.0000 </r>
      </set>
      <set comment="kpoint 32">
       <r>    6.0907    1.0000 </r>
       <r>    7.3058    1.0000 </r>
       <r>    8.8152    1.0000 </r>
       <r>    9.9203    1.0000 </r>
       <r>   11.3433    1.0000 </r>
       <r>   12.5336    1.0000 </r>
       <r>   21.3819    0.0000 </r>
       <r>   23.3749    0.0000 </r>
      </set>
      <set comment="kpoint 33">
       <r>    2.4492    1.0000 </r>
       <r>    3.8591    1.0000 </r>
       <r>   12.2033    1.0000 </r>
       <r>   13.4204    1.0000 </r>
       <r>   14.6991    0.0000 </r>
       <r>   15.8345    0.0000 </r>
       <r>   18.3242    0.0000 </r>
       <r>   21.8093    0.0000 </r>
      </set>
      <set comment="kpoint 34">
       <r>    0.3648    1.0000 </r>
       <r>    1.7969    1.0000 </r>
       <r>   14.6596    0.0000 </r>
       <r>   15.5600    0.0000 </r>
       <r>   16.7473    0.0000 </r>
       <r>   19.5327    0.0000 </r>
       <r>   21.0569    0.0000 </r>
       <r>   22.3007    0.0000 </r>
      </set>
      <set comment="kpoint 35">
       <r>    6.3045    1.0000 </r>
       <r>    6.5288    1.0000 </r>
       <r>    8.0276    1.0000 </r>
       <r>    8.2668    1.0000 </r>
       <r>   13.9079    0.9994 </r>
       <r>   15.1953    0.0000 </r>
       <r>   21.5389    0.0000 </r>
       <r>   21.9142    0.0000 </r>
      </set>
      <set comment="kpoint 36">
       <r>    3.6800    1.0000 </r>
       <r>    5.0598    1.0000 </r>
       <r>    8.6983    1.0000 </r>
       <r>   10.0379    1.0000 </r>
       <r>   18.5831    0.0000 </r>
       <r>   19.6103    0.0000 </r>
       <r>   20.8565    0.0000 </r>
       <r>   21.0145    0.0000 </r>
      </set>
     </set>
    </set>
   </array>
  </eigenvalues>
  <separator name="orbital magnetization" >
   <v name="MAGDIPOLOUT">      0.00000000      0.00000000      0.00000000</v>
  </separator>
  <dos>
   <i name="efermi">     14.13698403 </i>
   <total>
    <array>
     <dimension dim="1">gridpoints</dimension>
     <dimension dim="2">spin</dimension>
     <field>energy</field>
     <field>total</field>
     <field>integrated</field>
     <set>
      <set comment="spin 1">
       <r>    -4.2802     0.0000     0.0000 </r>
       <r>    -4.1704     0.0000     0.0000 </r>
       <r>    -4.0606     0.0000     0.0000 </r>
       <r>    -3.9508     0.0000     0.0000 </r>
       <r>    -3.8409     0.0000     0.0000 </r>
       <r>    -3.7311     0.0000     0.0000 </r>
       <r>    -3.6213     0.0000     0.0000 </r>
       <r>    -3.5114     0.0000     0.0000 </r>
       <r>    -3.4016     0.0000     0.0000 </r>
       <r>    -3.2918     0.0000     0.0000 </r>
       <r>    -3.1820     0.0000     0.0000 </r>
       <r>    -3.0721     0.0000     0.0000 </r>
       <r>    -2.9623     0.0019     0.0002 </r>
       <r>    -2.8525     0.0526     0.0060 </r>
       <r>    -2.7427     0.1863     0.0264 </r>
       <r>    -2.6328     0.0907     0.0364 </r>
       <r>    -2.5230     0.0089     0.0374 </r>
       <r>    -2.4132     0.0823     0.0464 </r>
       <r>    -2.3034     0.3261     0.0822 </r>
       <r>    -2.1935     0.2335     0.1079 </r>
       <r>    -2.0837     0.0293     0.1111 </r>
       <r>    -1.9739     0.0232     0.1136 </r>
       <r>    -1.8641     0.1543     0.1306 </r>
       <r>    -1.7542     0.1422     0.1462 </r>
       <r>    -1.6444     0.0332     0.1499 </r>
       <r>    -1.5346     0.2090     0.1728 </r>
       <r>    -1.4248     0.3868     0.2153 </r>
       <r>    -1.3149     0.2454     0.2422 </r>
       <r>    -1.2051     0.1549     0.2593 </r>
       <r>    -1.0953     0.2365     0.2852 </r>
       <r>    -0.9855     0.5707     0.3479 </r>
       <r>    -0.8756     0.4033     0.3922 </r>
       <r>    -0.7658     0.1313     0.4066 </r>
       <r>    -0.6560     0.0750     0.4149 </r>
       <r>    -0.5462     0.1896     0.4357 </r>
       <r>    -0.4363     0.0773     0.4442 </r>
       <r>    -0.3265     0.0685     0.4517 </r>
       <r>    -0.2167     0.3479     0.4899 </r>
       <r>    -0.1069     0.3950     0.5333 </r>
       <r>     0.0030     0.4172     0.5791 </r>
       <r>     0.1128     0.2856     0.6105 </r>
       <r>     0.2226     0.4064     0.6551 </r>
       <r>     0.3324     0.4778     0.7076 </r>
       <r>     0.4423     0.2796     0.7383 </r>
       <r>     0.5521     0.2056     0.7609 </r>
       <r>     0.6619     0.1381     0.7760 </r>
       <r>     0.7717     0.0159     0.7778 </r>
       <r>     0.8816     0.0149     0.7794 </r>
       <r>     0.9914     0.2032     0.8017 </r>
       <r>     1.1012     0.4153     0.8473 </r>
       <r>     1.2110     0.4154     0.8930 </r>
       <r>     1.3209     0.4374     0.9410 </r>
       <r>     1.4307     0.7823     1.0269 </r>
       <r>     1.5405     0.8487     1.1201 </r>
       <r>     1.6503     0.2491     1.1475 </r>
       <r>     1.7602     0.1170     1.1603 </r>
       <r>     1.8700     0.3518     1.1990 </r>
       <r>     1.9798     0.4974     1.2536 </r>
       <r>     2.0896     0.3127     1.2879 </r>
       <r>     2.1995     0.1251     1.3017 </r>
       <r>     2.3093     0.2126     1.3250 </r>
       <r>     2.4191     0.4099     1.3700 </r>
       <r>     2.5289     0.6081     1.4368 </r>
       <r>     2.6388     0.5583     1.4981 </r>
       <r>     2.7486     0.6460     1.5691 </r>
       <r>     2.8584     0.5199     1.6262 </r>
       <r>     2.9682     0.3256     1.6619 </r>
       <r>     3.0781     0.0880     1.6716 </r>
       <r>     3.1879     0.2523     1.6993 </r>
       <r>     3.2977     0.4537     1.7491 </r>
       <r>     3.4075     0.2956     1.7816 </r>
       <r>     3.5174     0.3529     1.8204 </r>
       <r>     3.6272     0.4029     1.8646 </r>
       <r>     3.7370     0.4361     1.9125 </r>
       <r>     3.8468     0.4328     1.9601 </r>
       <r>     3.9567     0.5995     2.0259 </r>
       <r>     4.0665     0.5003     2.0808 </r>
       <r>     4.1763     0.3081     2.1147 </r>
       <r>     4.2861     0.4135     2.1601 </r>
       <r>     4.3960     0.4363     2.2080 </r>
       <r>     4.5058     0.4626     2.2588 </r>
       <r>     4.6156     0.3373     2.2958 </r>
       <r>     4.7254     0.3689     2.3364 </r>
       <r>     4.8353     0.6567     2.4085 </r>
       <r>     4.9451     0.6039     2.4748 </r>
       <r>     5.0549     0.4894     2.5286 </r>
       <r>     5.1647     0.4658     2.5797 </r>
       <r>     5.2746     0.5140     2.6362 </r>
       <r>     5.3844     0.3315     2.6726 </r>
       <r>     5.4942     0.4269     2.7195 </r>
       <r>     5.6040     0.5607     2.7810 </r>
       <r>     5.7139     0.7454     2.8629 </r>
       <r>     5.8237     0.5269     2.9208 </r>
       <r>     5.9335     0.3787     2.9624 </r>
       <r>     6.0433     0.8850     3.0596 </r>
       <r>     6.1532     1.2268     3.1943 </r>
       <r>     6.2630     0.7173     3.2731 </r>
       <r>     6.3728     0.5962     3.3385 </r>
       <r>     6.4826     0.3567     3.3777 </r>
       <r>     6.5925     0.2195     3.4018 </r>
       <r>     6.7023     0.2266     3.4267 </r>
       <r>     6.8121     0.4961     3.4812 </r>
       <r>     6.9219     0.3104     3.5153 </r>
       <r>     7.0318     0.1222     3.5287 </r>
       <r>     7.1416     0.5317     3.5871 </r>
       <r>     7.2514     0.8760     3.6833 </r>
       <r>     7.3612     0.6923     3.7593 </r>
       <r>     7.4711     0.3355     3.7962 </r>
       <r>     7.5809     0.6715     3.8699 </r>
       <r>     7.6907     0.6883     3.9455 </r>
       <r>     7.8005     0.1672     3.9639 </r>
       <r>     7.9104     0.2626     3.9927 </r>
       <r>     8.0202     0.7820     4.0786 </r>
       <r>     8.1300     0.7071     4.1563 </r>
       <r>     8.2399     0.4321     4.2037 </r>
       <r>     8.3497     0.6724     4.2776 </r>
       <r>     8.4595     0.6697     4.3511 </r>
       <r>     8.5693     0.1801     4.3709 </r>
       <r>     8.6792     0.1705     4.3896 </r>
       <r>     8.7890     0.6406     4.4600 </r>
       <r>     8.8988     0.9073     4.5596 </r>
       <r>     9.0086     0.4167     4.6054 </r>
       <r>     9.1185     0.5490     4.6657 </r>
       <r>     9.2283     0.4802     4.7184 </r>
       <r>     9.3381     0.7203     4.7975 </r>
       <r>     9.4479     0.9470     4.9015 </r>
       <r>     9.5578     0.9301     5.0037 </r>
       <r>     9.6676     0.4867     5.0571 </r>
       <r>     9.7774     0.1565     5.0743 </r>
       <r>     9.8872     0.2308     5.0997 </r>
       <r>     9.9971     0.5816     5.1635 </r>
       <r>    10.1069     0.5494     5.2239 </r>
       <r>    10.2167     0.5991     5.2897 </r>
       <r>    10.3265     1.2420     5.4261 </r>
       <r>    10.4364     1.1835     5.5560 </r>
       <r>    10.5462     0.9327     5.6585 </r>
       <r>    10.6560     0.7556     5.7415 </r>
       <r>    10.7658     0.4058     5.7860 </r>
       <r>    10.8757     0.2109     5.8092 </r>
       <r>    10.9855     0.0496     5.8146 </r>
       <r>    11.0953     0.0057     5.8153 </r>
       <r>    11.2051     0.1512     5.8319 </r>
       <r>    11.3150     0.9617     5.9375 </r>
       <r>    11.4248     1.4896     6.1011 </r>
       <r>    11.5346     1.2542     6.2388 </r>
       <r>    11.6444     0.9639     6.3447 </r>
       <r>    11.7543     0.5590     6.4061 </r>
       <r>    11.8641     0.7317     6.4865 </r>
       <r>    11.9739     0.6249     6.5551 </r>
       <r>    12.0837     0.8616     6.6497 </r>
       <r>    12.1936     0.8481     6.7429 </r>
       <r>    12.3034     0.8561     6.8369 </r>
       <r>    12.4132     0.4743     6.8890 </r>
       <r>    12.5230     0.6084     6.9558 </r>
       <r>    12.6329     0.9322     7.0582 </r>
       <r>    12.7427     0.3849     7.1004 </r>
       <r>    12.8525     0.1108     7.1126 </r>
       <r>    12.9623     0.2788     7.1432 </r>
       <r>    13.0722     0.5824     7.2072 </r>
       <r>    13.1820     0.5597     7.2687 </r>
       <r>    13.2918     0.9630     7.3744 </r>
       <r>    13.4016     1.4052     7.5288 </r>
       <r>    13.5115     1.2544     7.6665 </r>
       <r>    13.6213     0.6880     7.7421 </r>
       <r>    13.7311     0.5426     7.8017 </r>
       <r>    13.8409     0.3861     7.8441 </r>
       <r>    13.9508     0.3833     7.8862 </r>
       <r>    14.0606     0.5005     7.9412 </r>
       <r>    14.1704     0.8178     8.0310 </r>
       <r>    14.2802     0.9536     8.1357 </r>
       <r>    14.3901     0.6071     8.2024 </r>
       <r>    14.4999     0.3264     8.2382 </r>
       <r>    14.6097     0.9410     8.3416 </r>
       <r>    14.7195     1.2017     8.4735 </r>
       <r>    14.8294     0.5868     8.5380 </r>
       <r>    14.9392     0.7833     8.6240 </r>
       <r>    15.0490     0.6185     8.6920 </r>
       <r>    15.1588     0.2615     8.7207 </r>
       <r>    15.2687     0.6194     8.7887 </r>
       <r>    15.3785     0.7747     8.8738 </r>
       <r>    15.4883     0.4756     8.9260 </r>
       <r>    15.5981     0.4448     8.9748 </r>
       <r>    15.7080     0.8985     9.0735 </r>
       <r>    15.8178     0.8791     9.1701 </r>
       <r>    15.9276     0.6658     9.2432 </r>
       <r>    16.0374     0.4339     9.2908 </r>
       <r>    16.1473     0.3147     9.3254 </r>
       <r>    16.2571     0.3559     9.3645 </r>
       <r>    16.3669     0.4033     9.4088 </r>
       <r>    16.4767     1.5200     9.5757 </r>
       <r>    16.5866     1.7384     9.7667 </r>
       <r>    16.6964     1.1205     9.8897 </r>
       <r>    16.8062     1.4553    10.0495 </r>
       <r>    16.9160     1.4518    10.2090 </r>
       <r>    17.0259     1.0050    10.3194 </r>
       <r>    17.1357     0.4102    10.3644 </r>
       <r>    17.2455     0.0644    10.3715 </r>
       <r>    17.3553     0.1208    10.3847 </r>
       <r>    17.4652     0.1765    10.4041 </r>
       <r>    17.5750     0.1537    10.4210 </r>
       <r>    17.6848     0.4838    10.4741 </r>
       <r>    17.7946     0.7854    10.5604 </r>
       <r>    17.9045     1.0245    10.6729 </r>
       <r>    18.0143     1.4603    10.8333 </r>
       <r>    18.1241     1.8019    11.0312 </r>
       <r>    18.2339     1.7680    11.2253 </r>
       <r>    18.3438     1.5033    11.3904 </r>
       <r>    18.4536     0.8000    11.4783 </r>
       <r>    18.5634     0.5240    11.5359 </r>
       <r>    18.6732     0.8057    11.6243 </r>
       <r>    18.7831     0.9814    11.7321 </r>
       <r>    18.8929     0.5482    11.7923 </r>
       <r>    19.0027     0.5849    11.8566 </r>
       <r>    19.1125     0.2954    11.8890 </r>
       <r>    19.2224     0.2446    11.9159 </r>
       <r>    19.3322     0.3656    11.9560 </r>
       <r>    19.4420     0.3433    11.9937 </r>
       <r>    19.5519     1.0694    12.1112 </r>
       <r>    19.6617     1.5274    12.2789 </r>
       <r>    19.7715     0.9443    12.3826 </r>
       <r>    19.8813     0.6502    12.4541 </r>
       <r>    19.9912     0.4552    12.5040 </r>
       <r>    20.1010     0.2689    12.5336 </r>
       <r>    20.2108     1.1013    12.6545 </r>
       <r>    20.3206     1.9528    12.8690 </r>
       <r>    20.4305     0.8095    12.9579 </r>
       <r>    20.5403     0.2524    12.9856 </r>
       <r>    20.6501     0.5248    13.0432 </r>
       <r>    20.7599     0.3751    13.0844 </r>
       <r>    20.8698     0.7243    13.1640 </r>
       <r>    20.9796     1.1666    13.2921 </r>
       <r>    21.0894     1.0065    13.4026 </r>
       <r>    21.1992     0.8350    13.4943 </r>
       <r>    21.3091     0.9356    13.5971 </r>
       <r>    21.4189     1.2277    13.7319 </r>
       <r>    21.5287     0.8113    13.8210 </r>
       <r>    21.6385     0.2590    13.8495 </r>
       <r>    21.7484     0.2365    13.8754 </r>
       <r>    21.8582     0.9367    13.9783 </r>
       <r>    21.9680     1.0727    14.0961 </r>
       <r>    22.0778     0.6352    14.1659 </r>
       <r>    22.1877     0.5298    14.2241 </r>
       <r>    22.2975     1.2929    14.3661 </r>
       <r>    22.4073     1.1880    14.4965 </r>
       <r>    22.5171     0.9392    14.5997 </r>
       <r>    22.6270     0.7548    14.6826 </r>
       <r>    22.7368     0.6695    14.7561 </r>
       <r>    22.8466     0.4047    14.8005 </r>
       <r>    22.9564     0.3816    14.8425 </r>
       <r>    23.0663     0.2229    14.8669 </r>
       <r>    23.1761     0.3883    14.9096 </r>
       <r>    23.2859     0.3131    14.9440 </r>
       <r>    23.3957     0.7106    15.0220 </r>
       <r>    23.5056     0.9582    15.1272 </r>
       <r>    23.6154     0.5703    15.1899 </r>
       <r>    23.7252     0.5194    15.2469 </r>
       <r>    23.8350     0.7317    15.3273 </r>
       <r>    23.9449     1.0108    15.4383 </r>
       <r>    24.0547     0.9932    15.5474 </r>
       <r>    24.1645     0.3817    15.5893 </r>
       <r>    24.2743     0.0300    15.5926 </r>
       <r>    24.3842     0.0140    15.5941 </r>
       <r>    24.4940     0.1299    15.6084 </r>
       <r>    24.6038     0.1646    15.6265 </r>
       <r>    24.7136     0.0284    15.6296 </r>
       <r>    24.8235     0.0007    15.6296 </r>
       <r>    24.9333     0.0099    15.6307 </r>
       <r>    25.0431     0.1752    15.6500 </r>
       <r>    25.1529     0.6373    15.7200 </r>
       <r>    25.2628     0.4702    15.7716 </r>
       <r>    25.3726     0.0580    15.7780 </r>
       <r>    25.4824     0.0635    15.7850 </r>
       <r>    25.5922     0.1915    15.8060 </r>
       <r>    25.7021     0.1402    15.8214 </r>
       <r>    25.8119     0.2434    15.8481 </r>
       <r>    25.9217     0.2674    15.8775 </r>
       <r>    26.0315     0.1166    15.8903 </r>
       <r>    26.1414     0.1511    15.9069 </r>
       <r>    26.2512     0.1516    15.9235 </r>
       <r>    26.3610     0.0214    15.9259 </r>
       <r>    26.4708     0.0004    15.9259 </r>
       <r>    26.5807     0.0008    15.9260 </r>
       <r>    26.6905     0.0337    15.9297 </r>
       <r>    26.8003     0.1719    15.9486 </r>
       <r>    26.9101     0.1197    15.9617 </r>
       <r>    27.0200     0.0167    15.9636 </r>
       <r>    27.1298     0.0908    15.9736 </r>
       <r>    27.2396     0.1863    15.9940 </r>
       <r>    27.3494     0.0526    15.9998 </r>
       <r>    27.4593     0.0019    16.0000 </r>
       <r>    27.5691     0.0000    16.0000 </r>
       <r>    27.6789     0.0000    16.0000 </r>
       <r>    27.7887     0.0000    16.0000 </r>
       <r>    27.8986     0.0000    16.0000 </r>
       <r>    28.0084     0.0000    16.0000 </r>
       <r>    28.1182     0.0000    16.0000 </r>
       <r>    28.2280     0.0000    16.0000 </r>
       <r>    28.3379     0.0000    16.0000 </r>
       <r>    28.4477     0.0000    16.0000 </r>
       <r>    28.5575     0.0000    16.0000 </r>
       <r>    28.6673     0.0000    16.0000 </r>
      </set>
     </set>
    </array>
   </total>
  </dos>
 </calculation>
 <structure name="finalpos" >
  <crystal>
   <varray name="basis" >
    <v>       2.50580335      -0.00000000      -0.00000000 </v>
    <v>      -1.25290167       2.17008936       0.00000000 </v>
    <v>       0.00000000       0.00000000       4.06358718 </v>
   </varray>
   <i name="volume">     22.09704413 </i>
   <varray name="rec_basis" >
    <v>       0.39907361       0.23040526      -0.00000000 </v>
    <v>       0.00000000       0.46081052      -0.00000000 </v>
    <v>       0.00000000       0.00000000       0.24608799 </v>
   </varray>
  </crystal>
  <varray name="positions" >
   <v>      -0.00000000       0.00000000       0.00000000 </v>
   <v>       0.33333333       0.66666667       0.50000000 </v>
  </varray>
 </structure>
</modeling>
