Fe BCC                                  
   2.70000000000000     
    -0.500000    0.500000    0.500000
     0.500000   -0.500000    0.500000
     0.500000    0.500000   -0.500000
   Fe
     1
Direct
  0.000000  0.000000  0.000000
 
   32   32   32
  82.777      81.034      76.036      68.423      59.085      48.980      38.976      29.757      21.804      15.402    
  10.655      7.4919      5.6688      4.7992      4.4186      4.1967      4.1195      4.1967      4.4186      4.7992    
  5.6688      7.4919      10.655      15.402      21.804      29.757      38.976      48.980      59.085      68.423    
  76.036      81.034      81.034      80.458      76.562      69.853      61.143      51.371      41.431      32.064    
  23.810      17.011      11.827      8.2443      6.0738      4.9725      4.4956      4.2340      4.1079      4.1335    
  4.3078      4.6146      5.2475      6.6597      9.2705      13.376      19.106      26.419      35.094      44.724    
  54.700      64.223      72.366      78.212      76.036      76.562      73.874      68.326      60.608      51.590    
  42.149      33.046      24.860      17.981      12.614      8.7972      6.3934      5.1098      4.5361      4.2418    
  4.0736      4.0493      4.1717      4.4261      4.8651      5.8649      7.8601      11.191      16.047      22.452    
  30.252      39.119      48.533      57.786      66.026      72.366      68.423      69.853      68.326      64.044    
  57.554      49.614      41.041      32.578      24.818      18.177      12.898      9.0563      6.5651      5.1812    
  4.5379      4.2183      4.0179      3.9495      4.0203      4.2235      4.5465      5.1950      6.5891      9.0990    
  12.970      18.290      24.979      32.785      41.282      49.866      57.786      64.223      59.085      61.143    
  60.608      57.554      52.378      45.707      38.262      30.734      23.699      17.579      12.636      8.9760    
  6.5507      5.1641      4.4966      4.1640      3.9428      3.8398      3.8639      4.0138      4.2765      4.6879    
  5.5696      7.3014      10.173      14.335      19.780      26.337      33.670      41.282      48.533      54.700    
  48.980      51.371      51.590      49.614      45.707      40.358      34.173      27.765      21.665      16.280    
  11.874      8.5691      6.3472      5.0522      4.4110      4.0813      3.8514      3.7249      3.7109      3.8108    
  4.0196      4.3231      4.8409      5.9179      7.8688      10.899      15.074      20.301      26.337      32.785    
  39.119      44.724      38.976      41.431      42.149      41.041      38.262      34.173      29.261      24.043    
  18.987      14.465      10.728      7.9024      5.9869      4.8584      4.2867      3.9749      3.7473      3.6091    
  3.5678      3.6253      3.7810      4.0290      4.3653      4.9732      6.1643      8.1825      11.156      15.074    
  19.780      24.979      30.252      35.094      29.757      32.064      33.046      32.578      30.734      27.765    
  24.043      19.985      15.987      12.372      9.3632      7.0794      5.5285      4.6116      4.1356      3.8509    
  3.6347      3.4957      3.4384      3.4639      3.5729      3.7658      4.0367      4.3971      5.0501      6.2531    
  8.1825      10.899      14.335      18.290      22.452      26.419      21.804      23.810      24.860      24.818    
  23.699      21.665      18.987      15.987      12.983      10.242      7.9520      6.2156      5.0412      4.3471    
  3.9716      3.7162      3.5186      3.3875      3.3245      3.3289      3.4013      3.5440      3.7588      4.0407    
  4.4090      5.0501      6.1643      7.8688      10.173      12.970      16.047      19.106      15.402      17.011    
  17.981      18.177      17.579      16.280      14.465      12.372      10.242      8.2836      6.6482      5.4149    
  4.5878      4.0963      3.8046      3.5780      3.4037      3.2868      3.2263      3.2197      3.2663      3.3688    
  3.5314      3.7568      4.0407      4.3971      4.9732      5.9179      7.3014      9.0990      11.191      13.376    
  10.655      11.827      12.614      12.898      12.636      11.874      10.728      9.3632      7.9520      6.6482    
  5.5627      4.7515      4.2104      3.8762      3.6391      3.4431      3.2948      3.1958      3.1434      3.1337    
  3.1648      3.2384      3.3588      3.5314      3.7588      4.0367      4.3653      4.8409      5.5696      6.5891    
  7.8601      9.2705      7.4919      8.2443      8.7972      9.0563      8.9760      8.5691      7.9024      7.0794    
  6.2156      5.4149      4.7515      4.2580      3.9213      3.6829      3.4816      3.3176      3.1960      3.1165    
  3.0753      3.0682      3.0924      3.1480      3.2384      3.3688      3.5440      3.7658      4.0290      4.3231    
  4.6879      5.1950      5.8649      6.6597      5.6688      6.0738      6.3934      6.5651      6.5507      6.3472    
  5.9869      5.5285      5.0412      4.5878      4.2104      3.9213      3.6988      3.5048      3.3385      3.2064    
  3.1110      3.0508      3.0224      3.0215      3.0451      3.0924      3.1648      3.2663      3.4013      3.5729    
  3.7810      4.0196      4.2765      4.5465      4.8651      5.2475      4.7992      4.9725      5.1098      5.1812    
  5.1641      5.0522      4.8584      4.6116      4.3471      4.0963      3.8762      3.6829      3.5048      3.3469    
  3.2152      3.1133      3.0423      3.0007      2.9856      2.9935      3.0215      3.0682      3.1337      3.2197    
  3.3289      3.4639      3.6253      3.8108      4.0138      4.2235      4.4261      4.6146      4.4186      4.4956    
  4.5361      4.5379      4.4966      4.4110      4.2867      4.1356      3.9716      3.8046      3.6391      3.4816    
  3.3385      3.2152      3.1152      3.0408      2.9920      2.9680      2.9667      2.9856      3.0224      3.0753    
  3.1434      3.2263      3.3245      3.4384      3.5678      3.7109      3.8639      4.0203      4.1717      4.3078    
  4.1967      4.2340      4.2418      4.2183      4.1640      4.0813      3.9749      3.8509      3.7162      3.5780    
  3.4431      3.3176      3.2064      3.1133      3.0408      2.9900      2.9614      2.9544      2.9680      3.0007    
  3.0508      3.1165      3.1958      3.2868      3.3875      3.4957      3.6091      3.7249      3.8398      3.9495    
  4.0493      4.1335      4.1195      4.1079      4.0736      4.0179      3.9428      3.8514      3.7473      3.6347    
  3.5186      3.4037      3.2948      3.1960      3.1110      3.0423      2.9920      2.9614      2.9511      2.9614    
  2.9920      3.0423      3.1110      3.1960      3.2948      3.4037      3.5186      3.6347      3.7473      3.8514    
  3.9428      4.0179      4.0736      4.1079      4.1967      4.1335      4.0493      3.9495      3.8398      3.7249    
  3.6091      3.4957      3.3875      3.2868      3.1958      3.1165      3.0508      3.0007      2.9680      2.9544    
  2.9614      2.9900      3.0408      3.1133      3.2064      3.3176      3.4431      3.5780      3.7162      3.8509    
  3.9749      4.0813      4.1640      4.2183      4.2418      4.2340      4.4186      4.3078      4.1717      4.0203    
  3.8639      3.7109      3.5678      3.4384      3.3245      3.2263      3.1434      3.0753      3.0224      2.9856    
  2.9667      2.9680      2.9920      3.0408      3.1152      3.2152      3.3385      3.4816      3.6391      3.8046    
  3.9716      4.1356      4.2867      4.4110      4.4966      4.5379      4.5361      4.4956      4.7992      4.6146    
  4.4261      4.2235      4.0138      3.8108      3.6253      3.4639      3.3289      3.2197      3.1337      3.0682    
  3.0215      2.9935      2.9856      3.0007      3.0423      3.1133      3.2152      3.3469      3.5048      3.6829    
  3.8762      4.0963      4.3471      4.6116      4.8584      5.0522      5.1641      5.1812      5.1098      4.9725    
  5.6688      5.2475      4.8651      4.5465      4.2765      4.0196      3.7810      3.5729      3.4013      3.2663    
  3.1648      3.0924      3.0451      3.0215      3.0224      3.0508      3.1110      3.2064      3.3385      3.5048    
  3.6988      3.9213      4.2104      4.5878      5.0412      5.5285      5.9869      6.3472      6.5507      6.5651    
  6.3934      6.0738      7.4919      6.6597      5.8649      5.1950      4.6879      4.3231      4.0290      3.7658    
  3.5440      3.3688      3.2384      3.1480      3.0924      3.0682      3.0753      3.1165      3.1960      3.3176    
  3.4816      3.6829      3.9213      4.2580      4.7515      5.4149      6.2156      7.0794      7.9024      8.5691    
  8.9760      9.0563      8.7972      8.2443      10.655      9.2705      7.8601      6.5891      5.5696      4.8409    
  4.3653      4.0367      3.7588      3.5314      3.3588      3.2384      3.1648      3.1337      3.1434      3.1958    
  3.2948      3.4431      3.6391      3.8762      4.2104      4.7515      5.5627      6.6482      7.9520      9.3632    
  10.728      11.874      12.636      12.898      12.614      11.827      15.402      13.376      11.191      9.0990    
  7.3014      5.9179      4.9732      4.3971      4.0407      3.7568      3.5314      3.3688      3.2663      3.2197    
  3.2263      3.2868      3.4037      3.5780      3.8046      4.0963      4.5878      5.4149      6.6482      8.2836    
  10.242      12.372      14.465      16.280      17.579      18.177      17.981      17.011      21.804      19.106    
  16.047      12.970      10.173      7.8688      6.1643      5.0501      4.4090      4.0407      3.7588      3.5440    
  3.4013      3.3289      3.3245      3.3875      3.5186      3.7162      3.9716      4.3471      5.0412      6.2156    
  7.9520      10.242      12.983      15.987      18.987      21.665      23.699      24.818      24.860      23.810    
  29.757      26.419      22.452      18.290      14.335      10.899      8.1825      6.2531      5.0501      4.3971    
  4.0367      3.7658      3.5729      3.4639      3.4384      3.4957      3.6347      3.8509      4.1356      4.6116    
  5.5285      7.0794      9.3632      12.372      15.987      19.985      24.043      27.765      30.734      32.578    
  33.046      32.064      38.976      35.094      30.252      24.979      19.780      15.074      11.156      8.1825    
  6.1643      4.9732      4.3653      4.0290      3.7810      3.6253      3.5678      3.6091      3.7473      3.9749    
  4.2867      4.8584      5.9869      7.9024      10.728      14.465      18.987      24.043      29.261      34.173    
  38.262      41.041      42.149      41.431      48.980      44.724      39.119      32.785      26.337      20.301    
  15.074      10.899      7.8688      5.9179      4.8409      4.3231      4.0196      3.8108      3.7109      3.7249    
  3.8514      4.0813      4.4110      5.0522      6.3472      8.5691      11.874      16.280      21.665      27.765    
  34.173      40.358      45.707      49.614      51.590      51.371      59.085      54.700      48.533      41.282    
  33.670      26.337      19.780      14.335      10.173      7.3014      5.5696      4.6879      4.2765      4.0138    
  3.8639      3.8398      3.9428      4.1640      4.4966      5.1641      6.5507      8.9760      12.636      17.579    
  23.699      30.734      38.262      45.707      52.378      57.554      60.608      61.143      68.423      64.223    
  57.786      49.866      41.282      32.785      24.979      18.290      12.970      9.0990      6.5891      5.1950    
  4.5465      4.2235      4.0203      3.9495      4.0179      4.2183      4.5379      5.1812      6.5651      9.0563    
  12.898      18.177      24.818      32.578      41.041      49.614      57.554      64.044      68.326      69.853    
  76.036      72.366      66.026      57.786      48.533      39.119      30.252      22.452      16.047      11.191    
  7.8601      5.8649      4.8651      4.4261      4.1717      4.0493      4.0736      4.2418      4.5361      5.1098    
  6.3934      8.7972      12.614      17.981      24.860      33.046      42.149      51.590      60.608      68.326    
  73.874      76.562      81.034      78.212      72.366      64.223      54.700      44.724      35.094      26.419    
  19.106      13.376      9.2705      6.6597      5.2475      4.6146      4.3078      4.1335      4.1079      4.2340    
  4.4956      4.9725      6.0738      8.2443      11.827      17.011      23.810      32.064      41.431      51.371    
  61.143      69.853      76.562      80.458      81.034      80.458      76.562      69.853      61.143      51.371    
  41.431      32.064      23.810      17.011      11.827      8.2443      6.0738      4.9725      4.4956      4.2340    
  4.1079      4.1335      4.3078      4.6146      5.2475      6.6597      9.2705      13.376      19.106      26.419    
  35.094      44.724      54.700      64.223      72.366      78.212      80.458      81.034      78.212      72.366    
  64.223      54.700      44.724      35.094      26.419      19.106      13.376      9.2705      6.6597      5.2475    
  4.6146      4.3078      4.1335      4.1079      4.2340      4.4956      4.9725      6.0738      8.2443      11.827    
  17.011      23.810      32.064      41.431      51.371      61.143      69.853      76.562      76.562      78.212    
  76.562      71.833      64.626      55.785      46.218      36.750      28.037      20.536      14.522      10.089    
  7.1610      5.4939      4.7069      4.3499      4.1347      4.0601      4.1347      4.3499      4.7069      5.4939    
  7.1610      10.089      14.522      20.536      28.037      36.750      46.218      55.785      64.626      71.833    
  69.853      72.366      71.833      68.326      62.301      54.485      45.722      36.820      28.451      21.107    
  15.101      10.571      7.4901      5.6651      4.7614      4.3564      4.1104      3.9930      4.0173      4.1809    
  4.4659      4.9898      6.1598      8.3786      11.939      16.981      23.475      31.223      39.849      48.794    
  57.332      64.626      61.143      64.223      64.626      62.301      57.554      50.976      43.309      35.303    
  27.615      20.745      15.029      10.639      7.5846      5.7216      4.7631      4.3261      4.0607      3.9101    
  3.8895      4.0009      4.2344      4.5922      5.3391      6.8771      9.5357      13.513      18.849      25.419    
  32.933      40.932      48.794      55.785      51.371      54.700      55.785      54.485      50.976      45.707    
  39.296      32.408      25.650      19.509      14.323      10.281      7.4238      5.6443      4.7027      4.2607    
  3.9875      3.8150      3.7584      3.8218      4.0017      4.2837      4.7376      5.7002      7.5177      10.437    
  14.566      19.855      26.098      32.933      39.849      46.218      41.431      44.724      46.218      45.722    
  43.309      39.296      34.173      28.503      22.822      17.577      13.092      9.5587      7.0333      5.4406    
  4.5818      4.1640      3.8939      3.7114      3.6297      3.6533      3.7818      4.0100      4.3268      4.8800    
  5.9981      7.9592      10.929      14.935      19.855      25.419      31.223      36.750      32.064      35.094    
  36.750      36.820      35.303      32.408      28.503      24.043      19.479      15.205      11.513      8.5825    
  6.4773      5.1424      4.4140      4.0423      3.7844      3.6028      3.5076      3.5018      3.5862      3.7604    
  4.0189      4.3634      4.9849      6.1662      8.1164      10.929      14.566      18.849      23.475      28.037    
  23.810      26.419      28.037      28.451      27.615      25.650      22.822      19.479      15.987      12.673    
  9.7885      7.4918      5.8418      4.7968      4.2208      3.9033      3.6646      3.4929      3.3946      3.3705    
  3.4208      3.5469      3.7499      4.0247      4.3853      5.0234      6.1662      7.9592      10.437      13.513    
  16.981      20.536      17.011      19.106      20.536      21.107      20.745      19.509      17.577      15.205    
  12.673      10.242      8.1150      6.4231      5.2143      4.4526      4.0239      3.7547      3.5404      3.3854    
  3.2924      3.2600      3.2870      3.3748      3.5269      3.7456      4.0266      4.3853      4.9849      5.9981    
  7.5177      9.5357      11.939      14.522      11.827      13.376      14.522      15.101      15.029      14.323    
  13.092      11.513      9.7885      8.1150      6.6482      5.4871      4.6650      4.1474      3.8368      3.6044    
  3.4178      3.2837      3.2018      3.1690      3.1827      3.2433      3.3543      3.5208      3.7456      4.0247    
  4.3634      4.8800      5.7002      6.8771      8.3786      10.089      8.2443      9.2705      10.089      10.571    
  10.639      10.281      9.5587      8.5825      7.4918      6.4231      5.4871      4.7515      4.2334      3.8971    
  3.6594      3.4596      3.3024      3.1911      3.1236      3.0959      3.1044      3.1483      3.2299      3.3543    
  3.5269      3.7499      4.0189      4.3268      4.7376      5.3391      6.1598      7.1610      6.0738      6.6597    
  7.1610      7.4901      7.5846      7.4238      7.0333      6.4773      5.8418      5.2143      4.6650      4.2334    
  3.9213      3.6907      3.4924      3.3265      3.1989      3.1105      3.0588      3.0395      3.0487      3.0846    
  3.1483      3.2433      3.3748      3.5469      3.7604      4.0100      4.2837      4.5922      4.9898      5.4939    
  4.9725      5.2475      5.4939      5.6651      5.7216      5.6443      5.4406      5.1424      4.7968      4.4526    
  4.1474      3.8971      3.6907      3.5048      3.3425      3.2101      3.1108      3.0446      3.0088      2.9997    
  3.0137      3.0487      3.1044      3.1827      3.2870      3.4208      3.5862      3.7818      4.0017      4.2344    
  4.4659      4.7069      4.4956      4.6146      4.7069      4.7614      4.7631      4.7027      4.5818      4.4140    
  4.2208      4.0239      3.8368      3.6594      3.4924      3.3425      3.2152      3.1141      3.0410      2.9952    
  2.9750      2.9774      2.9997      3.0395      3.0959      3.1690      3.2600      3.3705      3.5018      3.6533    
  3.8218      4.0009      4.1809      4.3499      4.2340      4.3078      4.3499      4.3564      4.3261      4.2607    
  4.1640      4.0423      3.9033      3.7547      3.6044      3.4596      3.3265      3.2101      3.1141      3.0408    
  2.9909      2.9642      2.9595      2.9750      3.0088      3.0588      3.1236      3.2018      3.2924      3.3946    
  3.5076      3.6297      3.7584      3.8895      4.0173      4.1347      4.1079      4.1335      4.1347      4.1104    
  4.0607      3.9875      3.8939      3.7844      3.6646      3.5404      3.4178      3.3024      3.1989      3.1108    
  3.0410      2.9909      2.9614      2.9526      2.9642      2.9952      3.0446      3.1105      3.1911      3.2837    
  3.3854      3.4929      3.6028      3.7114      3.8150      3.9101      3.9930      4.0601      4.1335      4.1079    
  4.0601      3.9930      3.9101      3.8150      3.7114      3.6028      3.4929      3.3854      3.2837      3.1911    
  3.1105      3.0446      2.9952      2.9642      2.9526      2.9614      2.9909      3.0410      3.1108      3.1989    
  3.3024      3.4178      3.5404      3.6646      3.7844      3.8939      3.9875      4.0607      4.1104      4.1347    
  4.3078      4.2340      4.1347      4.0173      3.8895      3.7584      3.6297      3.5076      3.3946      3.2924    
  3.2018      3.1236      3.0588      3.0088      2.9750      2.9595      2.9642      2.9909      3.0408      3.1141    
  3.2101      3.3265      3.4596      3.6044      3.7547      3.9033      4.0423      4.1640      4.2607      4.3261    
  4.3564      4.3499      4.6146      4.4956      4.3499      4.1809      4.0009      3.8218      3.6533      3.5018    
  3.3705      3.2600      3.1690      3.0959      3.0395      2.9997      2.9774      2.9750      2.9952      3.0410    
  3.1141      3.2152      3.3425      3.4924      3.6594      3.8368      4.0239      4.2208      4.4140      4.5818    
  4.7027      4.7631      4.7614      4.7069      5.2475      4.9725      4.7069      4.4659      4.2344      4.0017    
  3.7818      3.5862      3.4208      3.2870      3.1827      3.1044      3.0487      3.0137      2.9997      3.0088    
  3.0446      3.1108      3.2101      3.3425      3.5048      3.6907      3.8971      4.1474      4.4526      4.7968    
  5.1424      5.4406      5.6443      5.7216      5.6651      5.4939      6.6597      6.0738      5.4939      4.9898    
  4.5922      4.2837      4.0100      3.7604      3.5469      3.3748      3.2433      3.1483      3.0846      3.0487    
  3.0395      3.0588      3.1105      3.1989      3.3265      3.4924      3.6907      3.9213      4.2334      4.6650    
  5.2143      5.8418      6.4773      7.0333      7.4238      7.5846      7.4901      7.1610      9.2705      8.2443    
  7.1610      6.1598      5.3391      4.7376      4.3268      4.0189      3.7499      3.5269      3.3543      3.2299    
  3.1483      3.1044      3.0959      3.1236      3.1911      3.3024      3.4596      3.6594      3.8971      4.2334    
  4.7515      5.4871      6.4231      7.4918      8.5825      9.5587      10.281      10.639      10.571      10.089    
  13.376      11.827      10.089      8.3786      6.8771      5.7002      4.8800      4.3634      4.0247      3.7456    
  3.5208      3.3543      3.2433      3.1827      3.1690      3.2018      3.2837      3.4178      3.6044      3.8368    
  4.1474      4.6650      5.4871      6.6482      8.1150      9.7885      11.513      13.092      14.323      15.029    
  15.101      14.522      19.106      17.011      14.522      11.939      9.5357      7.5177      5.9981      4.9849    
  4.3853      4.0266      3.7456      3.5269      3.3748      3.2870      3.2600      3.2924      3.3854      3.5404    
  3.7547      4.0239      4.4526      5.2143      6.4231      8.1150      10.242      12.673      15.205      17.577    
  19.509      20.745      21.107      20.536      26.419      23.810      20.536      16.981      13.513      10.437    
  7.9592      6.1662      5.0234      4.3853      4.0247      3.7499      3.5469      3.4208      3.3705      3.3946    
  3.4929      3.6646      3.9033      4.2208      4.7968      5.8418      7.4918      9.7885      12.673      15.987    
  19.479      22.822      25.650      27.615      28.451      28.037      35.094      32.064      28.037      23.475    
  18.849      14.566      10.929      8.1164      6.1662      4.9849      4.3634      4.0189      3.7604      3.5862    
  3.5018      3.5076      3.6028      3.7844      4.0423      4.4140      5.1424      6.4773      8.5825      11.513    
  15.205      19.479      24.043      28.503      32.408      35.303      36.820      36.750      44.724      41.431    
  36.750      31.223      25.419      19.855      14.935      10.929      7.9592      5.9981      4.8800      4.3268    
  4.0100      3.7818      3.6533      3.6297      3.7114      3.8939      4.1640      4.5818      5.4406      7.0333    
  9.5587      13.092      17.577      22.822      28.503      34.173      39.296      43.309      45.722      46.218    
  54.700      51.371      46.218      39.849      32.933      26.098      19.855      14.566      10.437      7.5177    
  5.7002      4.7376      4.2837      4.0017      3.8218      3.7584      3.8150      3.9875      4.2607      4.7027    
  5.6443      7.4238      10.281      14.323      19.509      25.650      32.408      39.296      45.707      50.976    
  54.485      55.785      64.223      61.143      55.785      48.794      40.932      32.933      25.419      18.849    
  13.513      9.5357      6.8771      5.3391      4.5922      4.2344      4.0009      3.8895      3.9101      4.0607    
  4.3261      4.7631      5.7216      7.5846      10.639      15.029      20.745      27.615      35.303      43.309    
  50.976      57.554      62.301      64.626      72.366      69.853      64.626      57.332      48.794      39.849    
  31.223      23.475      16.981      11.939      8.3786      6.1598      4.9898      4.4659      4.1809      4.0173    
  3.9930      4.1104      4.3564      4.7614      5.6651      7.4901      10.571      15.101      21.107      28.451    
  36.820      45.722      54.485      62.301      68.326      71.833      78.212      76.562      71.833      64.626    
  55.785      46.218      36.750      28.037      20.536      14.522      10.089      7.1610      5.4939      4.7069    
  4.3499      4.1347      4.0601      4.1347      4.3499      4.7069      5.4939      7.1610      10.089      14.522    
  20.536      28.037      36.750      46.218      55.785      64.626      71.833      76.562      76.036      76.562    
  73.874      68.326      60.608      51.590      42.149      33.046      24.860      17.981      12.614      8.7972    
  6.3934      5.1098      4.5361      4.2418      4.0736      4.0493      4.1717      4.4261      4.8651      5.8649    
  7.8601      11.191      16.047      22.452      30.252      39.119      48.533      57.786      66.026      72.366    
  76.562      78.212      76.562      71.833      64.626      55.785      46.218      36.750      28.037      20.536    
  14.522      10.089      7.1610      5.4939      4.7069      4.3499      4.1347      4.0601      4.1347      4.3499    
  4.7069      5.4939      7.1610      10.089      14.522      20.536      28.037      36.750      46.218      55.785    
  64.626      71.833      73.874      76.562      76.036      72.366      66.026      57.786      48.533      39.119    
  30.252      22.452      16.047      11.191      7.8601      5.8649      4.8651      4.4261      4.1717      4.0493    
  4.0736      4.2418      4.5361      5.1098      6.3934      8.7972      12.614      17.981      24.860      33.046    
  42.149      51.590      60.608      68.326      68.326      71.833      72.366      69.853      64.626      57.332    
  48.794      39.849      31.223      23.475      16.981      11.939      8.3786      6.1598      4.9898      4.4659    
  4.1809      4.0173      3.9930      4.1104      4.3564      4.7614      5.6651      7.4901      10.571      15.101    
  21.107      28.451      36.820      45.722      54.485      62.301      60.608      64.626      66.026      64.626    
  60.608      54.485      46.973      38.848      30.823      23.470      17.191      12.220      8.6272      6.3203    
  5.0547      4.4681      4.1604      3.9652      3.8981      3.9652      4.1604      4.4681      5.0547      6.3203    
  8.6272      12.220      17.191      23.470      30.823      38.848      46.973      54.485      51.590      55.785    
  57.786      57.332      54.485      49.614      43.309      36.255      29.115      22.444      16.651      11.990    
  8.5612      6.3105      5.0390      4.4297      4.1106      3.8948      3.7940      3.8157      3.9587      4.2117    
  4.5929      5.3886      6.9678      9.6158      13.486      18.579      24.739      31.652      38.848      45.722    
  42.149      46.218      48.533      48.794      46.973      43.309      38.262      32.408      26.331      20.546    
  15.447      11.289      8.1907      6.1262      4.9367      4.3501      4.0334      3.8088      3.6852      3.6700    
  3.7644      3.9641      4.2552      4.7264      5.7006      7.4854      10.286      14.172      19.065      24.739    
  30.823      36.820      33.046      36.750      39.119      39.849      38.848      36.255      32.408      27.765    
  22.822      18.031      13.751      10.227      7.5770      5.7969      4.7596      4.2345      3.9333      3.7105    
  3.5755      3.5340      3.5874      3.7353      3.9728      4.2917      4.8420      5.9220      7.7720      10.523    
  14.172      18.579      23.470      28.451      24.860      28.037      30.252      31.223      30.823      29.115    
  26.331      22.822      18.987      15.205      11.788      8.9546      6.8162      5.3766      4.5335      4.0934    
  3.8158      3.6041      3.4681      3.4112      3.4338      3.5365      3.7201      3.9799      4.3185      4.9092    
  6.0019      7.7720      10.286      13.486      17.191      21.107      17.981      20.536      22.452      23.475    
  23.470      22.444      20.546      18.031      15.205      12.372      9.7885      7.6381      6.0169      4.9293    
  4.2908      3.9390      3.6876      3.4939      3.3656      3.3033      3.3057      3.3731      3.5082      3.7130    
  3.9836      4.3284      4.9092      5.9220      7.4854      9.6158      12.220      15.101      12.614      14.522    
  16.047      16.981      17.191      16.651      15.447      13.751      11.788      9.7885      7.9520      6.4231    
  5.2768      4.5131      4.0591      3.7791      3.5557      3.3848      3.2702      3.2103      3.2022      3.2451    
  3.3415      3.4958      3.7109      3.9836      4.3185      4.8420      5.7006      6.9678      8.6272      10.571    
  8.7972      10.089      11.191      11.939      12.220      11.990      11.289      10.227      8.9546      7.6381    
  6.4231      5.4149      4.6650      4.1660      3.8527      3.6196      3.4267      3.2812      3.1840      3.1320    
  3.1210      3.1493      3.2181      3.3318      3.4958      3.7130      3.9799      4.2917      4.7264      5.3886    
  6.3203      7.4901      6.3934      7.1610      7.8601      8.3786      8.6272      8.5612      8.1907      7.5770    
  6.8162      6.0169      5.2768      4.6650      4.2104      3.8971      3.6660      3.4676      3.3066      3.1873    