Fe BCC                                  
   2.70000000000000     
    -0.500000    0.500000    0.500000
     0.500000   -0.500000    0.500000
     0.500000    0.500000   -0.500000
   Fe
     1
Direct
  0.000000  0.000000  0.000000
 
   32   32   32
 0.82776872962E+02 0.81033619031E+02 0.76036222543E+02 0.68422871670E+02 0.59084982682E+02
 0.48980366615E+02 0.38975926448E+02 0.29757376623E+02 0.21804494330E+02 0.15402265713E+02
 0.10655288031E+02 0.74918792705E+01 0.56687966927E+01 0.47992099594E+01 0.44186304543E+01
 0.41967341843E+01 0.41194646540E+01 0.41967341843E+01 0.44186304543E+01 0.47992099594E+01
 0.56687966927E+01 0.74918792705E+01 0.10655288031E+02 0.15402265713E+02 0.21804494330E+02
 0.29757376623E+02 0.38975926448E+02 0.48980366615E+02 0.59084982682E+02 0.68422871670E+02
 0.76036222543E+02 0.81033619031E+02 0.81033619031E+02 0.80458012351E+02 0.76562328957E+02
 0.69853330754E+02 0.61143305156E+02 0.51370843170E+02 0.41431236228E+02 0.32064149077E+02
 0.23809657431E+02 0.17010532605E+02 0.11827150621E+02 0.82443404755E+01 0.60737821579E+01
 0.49724565189E+01 0.44956342787E+01 0.42340375257E+01 0.41078929051E+01 0.41335154363E+01
 0.43077932636E+01 0.46146287601E+01 0.52474519853E+01 0.66596647812E+01 0.92705299601E+01
 0.13375587595E+02 0.19106239884E+02 0.26419165558E+02 0.35094194795E+02 0.44723995442E+02
 0.54700125913E+02 0.64222582173E+02 0.72365541087E+02 0.78212060509E+02 0.76036222543E+02
 0.76562328957E+02 0.73874108070E+02 0.68325898022E+02 0.60608233511E+02 0.51589851661E+02
 0.42148855993E+02 0.33045686029E+02 0.24860159296E+02 0.17980549877E+02 0.12614492652E+02
 0.87971683781E+01 0.63934105366E+01 0.51097556564E+01 0.45360865945E+01 0.42418239087E+01
 0.40736053451E+01 0.40492791982E+01 0.41716559780E+01 0.44261101197E+01 0.48650695253E+01
 0.58649076659E+01 0.78601221985E+01 0.11190625734E+02 0.16047382981E+02 0.22451761190E+02
 0.30252170250E+02 0.39118827308E+02 0.48532527598E+02 0.57785719795E+02 0.66026466596E+02
 0.72365541087E+02 0.68422871670E+02 0.69853330754E+02 0.68325898022E+02 0.64044454925E+02
 0.57554190454E+02 0.49613978777E+02 0.41040796668E+02 0.32578136907E+02 0.24818378793E+02
 0.18177419291E+02 0.12897904361E+02 0.90562860453E+01 0.65651169763E+01 0.51812067381E+01
 0.45379255296E+01 0.42183339803E+01 0.40178803288E+01 0.39495421737E+01 0.40203256829E+01
 0.42235165036E+01 0.45464597985E+01 0.51950282732E+01 0.65891480339E+01 0.90989790452E+01
 0.12970294977E+02 0.18290454317E+02 0.24978960469E+02 0.32785009892E+02 0.41281770018E+02
 0.49865807063E+02 0.57785719795E+02 0.64222582173E+02 0.59084982682E+02 0.61143305156E+02
 0.60608233511E+02 0.57554190454E+02 0.52378478443E+02 0.45707208329E+02 0.38262044481E+02
 0.30734259233E+02 0.23699369360E+02 0.17579265696E+02 0.12636106480E+02 0.89759514865E+01
 0.65507317883E+01 0.51641180257E+01 0.44966123164E+01 0.41639653900E+01 0.39428339662E+01
 0.38397771994E+01 0.38638509939E+01 0.40137560220E+01 0.42765440956E+01 0.46878877264E+01
 0.55695544503E+01 0.73013742714E+01 0.10172859687E+02 0.14334974977E+02 0.19779946546E+02
 0.26336770532E+02 0.33669989148E+02 0.41281770018E+02 0.48532527598E+02 0.54700125913E+02
 0.48980366615E+02 0.51370843170E+02 0.51589851661E+02 0.49613978777E+02 0.45707208329E+02
 0.40358139088E+02 0.34173346838E+02 0.27764996748E+02 0.21665213572E+02 0.16279865105E+02
 0.11873653471E+02 0.85690522013E+01 0.63471690140E+01 0.50521665379E+01 0.44109893278E+01
 0.40813133694E+01 0.38513956591E+01 0.37249156459E+01 0.37108804581E+01 0.38107524774E+01
 0.40195642744E+01 0.43230684375E+01 0.48409258237E+01 0.59179250961E+01 0.78687962519E+01
 0.10899483205E+02 0.15073753154E+02 0.20301287529E+02 0.26336770532E+02 0.32785009892E+02
 0.39118827308E+02 0.44723995442E+02 0.38975926448E+02 0.41431236228E+02 0.42148855993E+02
 0.41040796668E+02 0.38262044481E+02 0.34173346838E+02 0.29261005557E+02 0.24042524113E+02
 0.18986929215E+02 0.14465130603E+02 0.10728368556E+02 0.79024300485E+01 0.59868796647E+01
 0.48584225129E+01 0.42866931672E+01 0.39749396860E+01 0.37472527758E+01 0.36091055406E+01
 0.35677889202E+01 0.36252775443E+01 0.37809938514E+01 0.40289827504E+01 0.43652643433E+01
 0.49732472655E+01 0.61643037610E+01 0.81825468283E+01 0.11156009581E+02 0.15073753154E+02
 0.19779946546E+02 0.24978960469E+02 0.30252170250E+02 0.35094194795E+02 0.29757376623E+02
 0.32064149077E+02 0.33045686029E+02 0.32578136907E+02 0.30734259233E+02 0.27764996748E+02
 0.24042524113E+02 0.19985101066E+02 0.15987387136E+02 0.12371804669E+02 0.93632271284E+01
 0.70794032706E+01 0.55284976518E+01 0.46115927262E+01 0.41355869047E+01 0.38509112837E+01
 0.36347311511E+01 0.34957176488E+01 0.34384425086E+01 0.34638728676E+01 0.35729418623E+01
 0.37657578060E+01 0.40366866204E+01 0.43970576859E+01 0.50501071943E+01 0.62531378390E+01
 0.81825468283E+01 0.10899483205E+02 0.14334974977E+02 0.18290454317E+02 0.22451761190E+02
 0.26419165558E+02 0.21804494330E+02 0.23809657431E+02 0.24860159296E+02 0.24818378793E+02
 0.23699369360E+02 0.21665213572E+02 0.18986929215E+02 0.15987387136E+02 0.12983479610E+02
 0.10241728888E+02 0.79520009359E+01 0.62155577098E+01 0.50412117277E+01 0.43471347619E+01
 0.39716090149E+01 0.37161877973E+01 0.35185853483E+01 0.33875098033E+01 0.33245421427E+01
 0.33289272873E+01 0.34012655032E+01 0.35440498833E+01 0.37588095411E+01 0.40406765535E+01
 0.44090349622E+01 0.50501071943E+01 0.61643037610E+01 0.78687962519E+01 0.10172859687E+02
 0.12970294977E+02 0.16047382981E+02 0.19106239884E+02 0.15402265713E+02 0.17010532605E+02
 0.17980549877E+02 0.18177419291E+02 0.17579265696E+02 0.16279865105E+02 0.14465130603E+02
 0.12371804669E+02 0.10241728888E+02 0.82836403840E+01 0.66481567778E+01 0.54149020729E+01
 0.45877901352E+01 0.40963028776E+01 0.38046468138E+01 0.35779657549E+01 0.34037055833E+01
 0.32868371355E+01 0.32263253777E+01 0.32196748241E+01 0.32663089498E+01 0.33687733014E+01
 0.35314287609E+01 0.37568234726E+01 0.40406765535E+01 0.43970576859E+01 0.49732472655E+01
 0.59179250961E+01 0.73013742714E+01 0.90989790452E+01 0.11190625734E+02 0.13375587595E+02
 0.10655288031E+02 0.11827150621E+02 0.12614492652E+02 0.12897904361E+02 0.12636106480E+02
 0.11873653471E+02 0.10728368556E+02 0.93632271284E+01 0.79520009359E+01 0.66481567778E+01
 0.55626678525E+01 0.47514650236E+01 0.42104047445E+01 0.38761923057E+01 0.36390803367E+01
 0.34430882392E+01 0.32947886960E+01 0.31958291766E+01 0.31433731767E+01 0.31336559975E+01
 0.31648369732E+01 0.32384025156E+01 0.33588232852E+01 0.35314287609E+01 0.37588095411E+01
 0.40366866204E+01 0.43652643433E+01 0.48409258237E+01 0.55695544503E+01 0.65891480339E+01
 0.78601221985E+01 0.92705299601E+01 0.74918792705E+01 0.82443404755E+01 0.87971683781E+01
 0.90562860453E+01 0.89759514865E+01 0.85690522013E+01 0.79024300485E+01 0.70794032706E+01
 0.62155577098E+01 0.54149020729E+01 0.47514650236E+01 0.42580342403E+01 0.39213370438E+01
 0.36829451326E+01 0.34815526543E+01 0.33175948890E+01 0.31960419182E+01 0.31165049294E+01
 0.30753253885E+01 0.30681866654E+01 0.30923550056E+01 0.31480086468E+01 0.32384025156E+01
 0.33687733014E+01 0.35440498833E+01 0.37657578060E+01 0.40289827504E+01 0.43230684375E+01
 0.46878877264E+01 0.51950282732E+01 0.58649076659E+01 0.66596647812E+01 0.56687966927E+01
 0.60737821579E+01 0.63934105366E+01 0.65651169763E+01 0.65507317883E+01 0.63471690140E+01
 0.59868796647E+01 0.55284976518E+01 0.50412117277E+01 0.45877901352E+01 0.42104047445E+01
 0.39213370438E+01 0.36988454920E+01 0.35048015006E+01 0.33385034627E+01 0.32064354934E+01
 0.31109775396E+01 0.30508289677E+01 0.30223870814E+01 0.30215099358E+01 0.30451303010E+01
 0.30923550056E+01 0.31648369732E+01 0.32663089498E+01 0.34012655032E+01 0.35729418623E+01
 0.37809938514E+01 0.40195642744E+01 0.42765440956E+01 0.45464597985E+01 0.48650695253E+01
 0.52474519853E+01 0.47992099594E+01 0.49724565189E+01 0.51097556564E+01 0.51812067381E+01
 0.51641180257E+01 0.50521665379E+01 0.48584225129E+01 0.46115927262E+01 0.43471347619E+01
 0.40963028776E+01 0.38761923057E+01 0.36829451326E+01 0.35048015006E+01 0.33468638853E+01
 0.32151597630E+01 0.31133309353E+01 0.30423234088E+01 0.30007197522E+01 0.29855712226E+01
 0.29934577539E+01 0.30215099358E+01 0.30681866654E+01 0.31336559975E+01 0.32196748241E+01
 0.33289272873E+01 0.34638728676E+01 0.36252775443E+01 0.38107524774E+01 0.40137560220E+01
 0.42235165036E+01 0.44261101197E+01 0.46146287601E+01 0.44186304543E+01 0.44956342787E+01
 0.45360865945E+01 0.45379255296E+01 0.44966123164E+01 0.44109893278E+01 0.42866931672E+01
 0.41355869047E+01 0.39716090149E+01 0.38046468138E+01 0.36390803367E+01 0.34815526543E+01
 0.33385034627E+01 0.32151597630E+01 0.31152389193E+01 0.30407541775E+01 0.29920386858E+01
 0.29680189596E+01 0.29666737257E+01 0.29855712226E+01 0.30223870814E+01 0.30753253885E+01
 0.31433731767E+01 0.32263253777E+01 0.33245421427E+01 0.34384425086E+01 0.35677889202E+01
 0.37108804581E+01 0.38638509939E+01 0.40203256829E+01 0.41716559780E+01 0.43077932636E+01
 0.41967341843E+01 0.42340375257E+01 0.42418239087E+01 0.42183339803E+01 0.41639653900E+01
 0.40813133694E+01 0.39749396860E+01 0.38509112837E+01 0.37161877973E+01 0.35779657549E+01
 0.34430882392E+01 0.33175948890E+01 0.32064354934E+01 0.31133309353E+01 0.30407541775E+01
 0.29900107636E+01 0.29614000510E+01 0.29544265493E+01 0.29680189596E+01 0.30007197522E+01
 0.30508289677E+01 0.31165049294E+01 0.31958291766E+01 0.32868371355E+01 0.33875098033E+01
 0.34957176488E+01 0.36091055406E+01 0.37249156459E+01 0.38397771994E+01 0.39495421737E+01
 0.40492791982E+01 0.41335154363E+01 0.41194646540E+01 0.41078929051E+01 0.40736053451E+01
 0.40178803288E+01 0.39428339662E+01 0.38513956591E+01 0.37472527758E+01 0.36347311511E+01
 0.35185853483E+01 0.34037055833E+01 0.32947886960E+01 0.31960419182E+01 0.31109775396E+01
 0.30423234088E+01 0.29920386858E+01 0.29614000510E+01 0.29511126430E+01 0.29614000510E+01
 0.29920386858E+01 0.30423234088E+01 0.31109775396E+01 0.31960419182E+01 0.32947886960E+01
 0.34037055833E+01 0.35185853483E+01 0.36347311511E+01 0.37472527758E+01 0.38513956591E+01
 0.39428339662E+01 0.40178803288E+01 0.40736053451E+01 0.41078929051E+01 0.41967341843E+01
 0.41335154363E+01 0.40492791982E+01 0.39495421737E+01 0.38397771994E+01 0.37249156459E+01
 0.36091055406E+01 0.34957176488E+01 0.33875098033E+01 0.32868371355E+01 0.31958291766E+01
 0.31165049294E+01 0.30508289677E+01 0.30007197522E+01 0.29680189596E+01 0.29544265493E+01
 0.29614000510E+01 0.29900107636E+01 0.30407541775E+01 0.31133309353E+01 0.32064354934E+01
 0.33175948890E+01 0.34430882392E+01 0.35779657549E+01 0.37161877973E+01 0.38509112837E+01
 0.39749396860E+01 0.40813133694E+01 0.41639653900E+01 0.42183339803E+01 0.42418239087E+01
 0.42340375257E+01 0.44186304543E+01 0.43077932636E+01 0.41716559780E+01 0.40203256829E+01
 0.38638509939E+01 0.37108804581E+01 0.35677889202E+01 0.34384425086E+01 0.33245421427E+01
 0.32263253777E+01 0.31433731767E+01 0.30753253885E+01 0.30223870814E+01 0.29855712226E+01
 0.29666737257E+01 0.29680189596E+01 0.29920386858E+01 0.30407541775E+01 0.31152389193E+01
 0.32151597630E+01 0.33385034627E+01 0.34815526543E+01 0.36390803367E+01 0.38046468138E+01
 0.39716090149E+01 0.41355869047E+01 0.42866931672E+01 0.44109893278E+01 0.44966123164E+01
 0.45379255296E+01 0.45360865945E+01 0.44956342787E+01 0.47992099594E+01 0.46146287601E+01
 0.44261101197E+01 0.42235165036E+01 0.40137560220E+01 0.38107524774E+01 0.36252775443E+01
 0.34638728676E+01 0.33289272873E+01 0.32196748241E+01 0.31336559975E+01 0.30681866654E+01
 0.30215099358E+01 0.29934577539E+01 0.29855712226E+01 0.30007197522E+01 0.30423234088E+01
 0.31133309353E+01 0.32151597630E+01 0.33468638853E+01 0.35048015006E+01 0.36829451326E+01
 0.38761923057E+01 0.40963028776E+01 0.43471347619E+01 0.46115927262E+01 0.48584225129E+01
 0.50521665379E+01 0.51641180257E+01 0.51812067381E+01 0.51097556564E+01 0.49724565189E+01
 0.56687966927E+01 0.52474519853E+01 0.48650695253E+01 0.45464597985E+01 0.42765440956E+01
 0.40195642744E+01 0.37809938514E+01 0.35729418623E+01 0.34012655032E+01 0.32663089498E+01
 0.31648369732E+01 0.30923550056E+01 0.30451303010E+01 0.30215099358E+01 0.30223870814E+01
 0.30508289677E+01 0.31109775396E+01 0.32064354934E+01 0.33385034627E+01 0.35048015006E+01
 0.36988454920E+01 0.39213370438E+01 0.42104047445E+01 0.45877901352E+01 0.50412117277E+01
 0.55284976518E+01 0.59868796647E+01 0.63471690140E+01 0.65507317883E+01 0.65651169763E+01
 0.63934105366E+01 0.60737821579E+01 0.74918792705E+01 0.66596647812E+01 0.58649076659E+01
 0.51950282732E+01 0.46878877264E+01 0.43230684375E+01 0.40289827504E+01 0.37657578060E+01
 0.35440498833E+01 0.33687733014E+01 0.32384025156E+01 0.31480086468E+01 0.30923550056E+01
 0.30681866654E+01 0.30753253885E+01 0.31165049294E+01 0.31960419182E+01 0.33175948890E+01
 0.34815526543E+01 0.36829451326E+01 0.39213370438E+01 0.42580342403E+01 0.47514650236E+01
 0.54149020729E+01 0.62155577098E+01 0.70794032706E+01 0.79024300485E+01 0.85690522013E+01
 0.89759514865E+01 0.90562860453E+01 0.87971683781E+01 0.82443404755E+01 0.10655288031E+02
 0.92705299601E+01 0.78601221985E+01 0.65891480339E+01 0.55695544503E+01 0.48409258237E+01
 0.43652643433E+01 0.40366866204E+01 0.37588095411E+01 0.35314287609E+01 0.33588232852E+01
 0.32384025156E+01 0.31648369732E+01 0.31336559975E+01 0.31433731767E+01 0.31958291766E+01
 0.32947886960E+01 0.34430882392E+01 0.36390803367E+01 0.38761923057E+01 0.42104047445E+01
 0.47514650236E+01 0.55626678525E+01 0.66481567778E+01 0.79520009359E+01 0.93632271284E+01
 0.10728368556E+02 0.11873653471E+02 0.12636106480E+02 0.12897904361E+02 0.12614492652E+02
 0.11827150621E+02 0.15402265713E+02 0.13375587595E+02 0.11190625734E+02 0.90989790452E+01
 0.73013742714E+01 0.59179250961E+01 0.49732472655E+01 0.43970576859E+01 0.40406765535E+01
 0.37568234726E+01 0.35314287609E+01 0.33687733014E+01 0.32663089498E+01 0.32196748241E+01
 0.32263253777E+01 0.32868371355E+01 0.34037055833E+01 0.35779657549E+01 0.38046468138E+01
 0.40963028776E+01 0.45877901352E+01 0.54149020729E+01 0.66481567778E+01 0.82836403840E+01
 0.10241728888E+02 0.12371804669E+02 0.14465130603E+02 0.16279865105E+02 0.17579265696E+02
 0.18177419291E+02 0.17980549877E+02 0.17010532605E+02 0.21804494330E+02 0.19106239884E+02
 0.16047382981E+02 0.12970294977E+02 0.10172859687E+02 0.78687962519E+01 0.61643037610E+01
 0.50501071943E+01 0.44090349622E+01 0.40406765535E+01 0.37588095411E+01 0.35440498833E+01
 0.34012655032E+01 0.33289272873E+01 0.33245421427E+01 0.33875098033E+01 0.35185853483E+01
 0.37161877973E+01 0.39716090149E+01 0.43471347619E+01 0.50412117277E+01 0.62155577098E+01
 0.79520009359E+01 0.10241728888E+02 0.12983479610E+02 0.15987387136E+02 0.18986929215E+02
 0.21665213572E+02 0.23699369360E+02 0.24818378793E+02 0.24860159296E+02 0.23809657431E+02
 0.29757376623E+02 0.26419165558E+02 0.22451761190E+02 0.18290454317E+02 0.14334974977E+02
 0.10899483205E+02 0.81825468283E+01 0.62531378390E+01 0.50501071943E+01 0.43970576859E+01
 0.40366866204E+01 0.37657578060E+01 0.35729418623E+01 0.34638728676E+01 0.34384425086E+01
 0.34957176488E+01 0.36347311511E+01 0.38509112837E+01 0.41355869047E+01 0.46115927262E+01
 0.55284976518E+01 0.70794032706E+01 0.93632271284E+01 0.12371804669E+02 0.15987387136E+02
 0.19985101066E+02 0.24042524113E+02 0.27764996748E+02 0.30734259233E+02 0.32578136907E+02
 0.33045686029E+02 0.32064149077E+02 0.38975926448E+02 0.35094194795E+02 0.30252170250E+02
 0.24978960469E+02 0.19779946546E+02 0.15073753154E+02 0.11156009581E+02 0.81825468283E+01
 0.61643037610E+01 0.49732472655E+01 0.43652643433E+01 0.40289827504E+01 0.37809938514E+01
 0.36252775443E+01 0.35677889202E+01 0.36091055406E+01 0.37472527758E+01 0.39749396860E+01
 0.42866931672E+01 0.48584225129E+01 0.59868796647E+01 0.79024300485E+01 0.10728368556E+02
 0.14465130603E+02 0.18986929215E+02 0.24042524113E+02 0.29261005557E+02 0.34173346838E+02
 0.38262044481E+02 0.41040796668E+02 0.42148855993E+02 0.41431236228E+02 0.48980366615E+02
 0.44723995442E+02 0.39118827308E+02 0.32785009892E+02 0.26336770532E+02 0.20301287529E+02
 0.15073753154E+02 0.10899483205E+02 0.78687962519E+01 0.59179250961E+01 0.48409258237E+01
 0.43230684375E+01 0.40195642744E+01 0.38107524774E+01 0.37108804581E+01 0.37249156459E+01
 0.38513956591E+01 0.40813133694E+01 0.44109893278E+01 0.50521665379E+01 0.63471690140E+01
 0.85690522013E+01 0.11873653471E+02 0.16279865105E+02 0.21665213572E+02 0.27764996748E+02
 0.34173346838E+02 0.40358139088E+02 0.45707208329E+02 0.49613978777E+02 0.51589851661E+02
 0.51370843170E+02 0.59084982682E+02 0.54700125913E+02 0.48532527598E+02 0.41281770018E+02
 0.33669989148E+02 0.26336770532E+02 0.19779946546E+02 0.14334974977E+02 0.10172859687E+02
 0.73013742714E+01 0.55695544503E+01 0.46878877264E+01 0.42765440956E+01 0.40137560220E+01
 0.38638509939E+01 0.38397771994E+01 0.39428339662E+01 0.41639653900E+01 0.44966123164E+01
 0.51641180257E+01 0.65507317883E+01 0.89759514865E+01 0.12636106480E+02 0.17579265696E+02
 0.23699369360E+02 0.30734259233E+02 0.38262044481E+02 0.45707208329E+02 0.52378478443E+02
 0.57554190454E+02 0.60608233511E+02 0.61143305156E+02 0.68422871670E+02 0.64222582173E+02
 0.57785719795E+02 0.49865807063E+02 0.41281770018E+02 0.32785009892E+02 0.24978960469E+02
 0.18290454317E+02 0.12970294977E+02 0.90989790452E+01 0.65891480339E+01 0.51950282732E+01
 0.45464597985E+01 0.42235165036E+01 0.40203256829E+01 0.39495421737E+01 0.40178803288E+01
 0.42183339803E+01 0.45379255296E+01 0.51812067381E+01 0.65651169763E+01 0.90562860453E+01
 0.12897904361E+02 0.18177419291E+02 0.24818378793E+02 0.32578136907E+02 0.41040796668E+02
 0.49613978777E+02 0.57554190454E+02 0.64044454925E+02 0.68325898022E+02 0.69853330754E+02
 0.76036222543E+02 0.72365541087E+02 0.66026466596E+02 0.57785719795E+02 0.48532527598E+02
 0.39118827308E+02 0.30252170250E+02 0.22451761190E+02 0.16047382981E+02 0.11190625734E+02
 0.78601221985E+01 0.58649076659E+01 0.48650695253E+01 0.44261101197E+01 0.41716559780E+01
 0.40492791982E+01 0.40736053451E+01 0.42418239087E+01 0.45360865945E+01 0.51097556564E+01
 0.63934105366E+01 0.87971683781E+01 0.12614492652E+02 0.17980549877E+02 0.24860159296E+02
 0.33045686029E+02 0.42148855993E+02 0.51589851661E+02 0.60608233511E+02 0.68325898022E+02
 0.73874108070E+02 0.76562328957E+02 0.81033619031E+02 0.78212060509E+02 0.72365541087E+02
 0.64222582173E+02 0.54700125913E+02 0.44723995442E+02 0.35094194795E+02 0.26419165558E+02
 0.19106239884E+02 0.13375587595E+02 0.92705299601E+01 0.66596647812E+01 0.52474519853E+01
 0.46146287601E+01 0.43077932636E+01 0.41335154363E+01 0.41078929051E+01 0.42340375257E+01
 0.44956342787E+01 0.49724565189E+01 0.60737821579E+01 0.82443404755E+01 0.11827150621E+02
 0.17010532605E+02 0.23809657431E+02 0.32064149077E+02 0.41431236228E+02 0.51370843170E+02
 0.61143305156E+02 0.69853330754E+02 0.76562328957E+02 0.80458012351E+02 0.81033619031E+02
 0.80458012351E+02 0.76562328957E+02 0.69853330754E+02 0.61143305156E+02 0.51370843170E+02
 0.41431236228E+02 0.32064149077E+02 0.23809657431E+02 0.17010532605E+02 0.11827150621E+02
 0.82443404755E+01 0.60737821579E+01 0.49724565189E+01 0.44956342787E+01 0.42340375257E+01
 0.41078929051E+01 0.41335154363E+01 0.43077932636E+01 0.46146287601E+01 0.52474519853E+01
 0.66596647812E+01 0.92705299601E+01 0.13375587595E+02 0.19106239884E+02 0.26419165558E+02
 0.35094194795E+02 0.44723995442E+02 0.54700125913E+02 0.64222582173E+02 0.72365541087E+02
 0.78212060509E+02 0.80458012351E+02 0.81033619071E+02 0.78212060587E+02 0.72365541194E+02
 0.64222582300E+02 0.54700126050E+02 0.44723995579E+02 0.35094194922E+02 0.26419165670E+02
 0.19106239977E+02 0.13375587668E+02 0.92705300139E+01 0.66596648184E+01 0.52474520091E+01
 0.46146287738E+01 0.43077932700E+01 0.41335154376E+01 0.41078929020E+01 0.42340375178E+01
 0.44956342643E+01 0.49724564951E+01 0.60737821212E+01 0.82443404227E+01 0.11827150549E+02
 0.17010532515E+02 0.23809657324E+02 0.32064148957E+02 0.41431236104E+02 0.51370843052E+02
 0.61143305055E+02 0.69853330679E+02 0.76562328918E+02 0.76562328957E+02 0.78212060587E+02
 0.76562329026E+02 0.71832523073E+02 0.64625557811E+02 0.55784701713E+02 0.46218078450E+02
 0.36750362545E+02 0.28036543065E+02 0.20536329611E+02 0.14521869650E+02 0.10089098982E+02
 0.71610482593E+01 0.54939179829E+01 0.47069313070E+01 0.43498755014E+01 0.41347197179E+01
 0.40600638341E+01 0.41347197105E+01 0.43498754844E+01 0.47069312764E+01 0.54939179336E+01
 0.71610481854E+01 0.10089098878E+02 0.14521869514E+02 0.20536329441E+02 0.28036542866E+02
 0.36750362328E+02 0.46218078227E+02 0.55784701504E+02 0.64625557632E+02 0.71832522943E+02
 0.69853330754E+02 0.72365541194E+02 0.71832523073E+02 0.68325898099E+02 0.62300599764E+02
 0.54484953433E+02 0.45722271508E+02 0.36820491444E+02 0.28451184302E+02 0.21107323122E+02
 0.15100750797E+02 0.10571140278E+02 0.74901136081E+01 0.56651368116E+01 0.47613689281E+01
 0.43563625743E+01 0.41103827262E+01 0.39930027074E+01 0.40172873441E+01 0.41808575329E+01
 0.44659299486E+01 0.49898291900E+01 0.61597610551E+01 0.83785803561E+01 0.11939174464E+02
 0.16980834614E+02 0.23474997635E+02 0.31222713297E+02 0.39848723819E+02 0.48794471577E+02
 0.57331920408E+02 0.64625557669E+02 0.61143305156E+02 0.64222582300E+02 0.64625557811E+02
 0.62300599764E+02 0.57554190514E+02 0.50976428366E+02 0.43308852578E+02 0.35303320734E+02
 0.27614698210E+02 0.20745010445E+02 0.15029158229E+02 0.10638539111E+02 0.75845919961E+01
 0.57216471702E+01 0.47631199701E+01 0.43260581733E+01 0.40607314500E+01 0.39101236001E+01
 0.38894894988E+01 0.40008617519E+01 0.42343578436E+01 0.45922265115E+01 0.53390944240E+01
 0.68771281313E+01 0.95356973272E+01 0.13512793839E+02 0.18848630790E+02 0.25419064483E+02
 0.32933449190E+02 0.40931914881E+02 0.48794471609E+02 0.55784701571E+02 0.51370843170E+02
 0.54700126050E+02 0.55784701713E+02 0.54484953433E+02 0.50976428366E+02 0.45707208354E+02
 0.39295762411E+02 0.32407546850E+02 0.25650114946E+02 0.19509084394E+02 0.14323247538E+02
 0.10281389371E+02 0.74237912989E+01 0.56443109452E+01 0.47026998412E+01 0.42606507162E+01
 0.39874882849E+01 0.38150278736E+01 0.37584012375E+01 0.38217745013E+01 0.40016782869E+01
 0.42836515039E+01 0.47376103835E+01 0.57001833159E+01 0.75177458331E+01 0.10437141774E+02
 0.14565524068E+02 0.19854737322E+02 0.26098460154E+02 0.32933449214E+02 0.39848723874E+02
 0.46218078316E+02 0.41431236228E+02 0.44723995579E+02 0.46218078450E+02 0.45722271508E+02
 0.43308852578E+02 0.39295762411E+02 0.34173346823E+02 0.28503090218E+02 0.22822168439E+02
 0.17577317885E+02 0.13092407999E+02 0.95586632713E+01 0.70332758709E+01 0.54405959071E+01
 0.45817823284E+01 0.41639842122E+01 0.38938654566E+01 0.37113617035E+01 0.36297415223E+01
 0.36532612428E+01 0.37818456004E+01 0.40100391831E+01 0.43267724273E+01 0.48800231767E+01
 0.59981266944E+01 0.79591932764E+01 0.10929376717E+02 0.14935215345E+02 0.19854737336E+02
 0.25419064521E+02 0.31222713365E+02 0.36750362427E+02 0.32064149077E+02 0.35094194922E+02
 0.36750362545E+02 0.36820491444E+02 0.35303320734E+02 0.32407546850E+02 0.28503090218E+02
 0.24042524069E+02 0.19479337223E+02 0.15204964716E+02 0.11512637163E+02 0.85824963274E+01
 0.64772628081E+01 0.51424289727E+01 0.44140135392E+01 0.40423209486E+01 0.37843887561E+01
 0.36027711018E+01 0.35076139761E+01 0.35017929106E+01 0.35861658379E+01 0.37603885751E+01
 0.40188629403E+01 0.43634416773E+01 0.49848589657E+01 0.61662091223E+01 0.81163908492E+01
 0.10929376722E+02 0.14565524087E+02 0.18848630831E+02 0.23474997705E+02 0.28036542965E+02
 0.23809657431E+02 0.26419165670E+02 0.28036543065E+02 0.28451184302E+02 0.27614698210E+02
 0.25650114946E+02 0.22822168439E+02 0.19479337223E+02 0.15987387082E+02 0.12673205290E+02
 0.97884716933E+01 0.74917502988E+01 0.58417989848E+01 0.47968183485E+01 0.42208164555E+01
 0.39032803251E+01 0.36645551952E+01 0.34928982735E+01 0.33946460418E+01 0.33705367512E+01
 0.34207676424E+01 0.35468964864E+01 0.37498558373E+01 0.40246880773E+01 0.43853176983E+01
 0.50234312419E+01 0.61662091212E+01 0.79591932801E+01 0.10437141791E+02 0.13512793877E+02
 0.16980834678E+02 0.20536329531E+02 0.17010532605E+02 0.19106239977E+02 0.20536329611E+02
 0.21107323122E+02 0.20745010445E+02 0.19509084394E+02 0.17577317885E+02 0.15204964716E+02
 0.12673205290E+02 0.10241728847E+02 0.81149514826E+01 0.64231467462E+01 0.52142988998E+01
 0.44526188796E+01 0.40238694397E+01 0.37547040738E+01 0.35403660810E+01 0.33853561529E+01
 0.32923850264E+01 0.32599835150E+01 0.32869728093E+01 0.33747788837E+01 0.35269044544E+01
 0.37456035553E+01 0.40266369638E+01 0.43853176950E+01 0.49848589609E+01 0.59981266936E+01
 0.75177458439E+01 0.95356973570E+01 0.11939174518E+02 0.14521869589E+02 0.11827150621E+02
 0.13375587668E+02 0.14521869650E+02 0.15100750797E+02 0.15029158229E+02 0.14323247538E+02
 0.13092407999E+02 0.11512637163E+02 0.97884716933E+01 0.81149514826E+01 0.66481567599E+01
 0.54870786125E+01 0.46649611135E+01 0.41473732043E+01 0.38367554329E+01 0.36044142804E+01
 0.34178135826E+01 0.32836501300E+01 0.32017798368E+01 0.31689922539E+01 0.31827178540E+01
 0.32433077264E+01 0.33543419678E+01 0.35208365154E+01 0.37456035530E+01 0.40246880716E+01
 0.43634416699E+01 0.48800231722E+01 0.57001833209E+01 0.68771281521E+01 0.83785803965E+01
 0.10089098937E+02 0.82443404755E+01 0.92705300139E+01 0.10089098982E+02 0.10571140278E+02
 0.10638539111E+02 0.10281389371E+02 0.95586632713E+01 0.85824963274E+01 0.74917502988E+01
 0.64231467462E+01 0.54870786125E+01 0.47514650273E+01 0.42334089641E+01 0.38971480891E+01
 0.36593870856E+01 0.34596049553E+01 0.33024136654E+01 0.31910607155E+01 0.31236182424E+01
 0.30959122172E+01 0.31044176597E+01 0.31482595216E+01 0.32298982692E+01 0.33543419682E+01
 0.35269044527E+01 0.37498558323E+01 0.40188629333E+01 0.43267724218E+01 0.47376103850E+01
 0.53390944376E+01 0.61597610839E+01 0.71610482287E+01 0.60737821579E+01 0.66596648184E+01
 0.71610482593E+01 0.74901136081E+01 0.75845919961E+01 0.74237912989E+01 0.70332758709E+01
 0.64772628081E+01 0.58417989848E+01 0.52142988998E+01 0.46649611135E+01 0.42334089641E+01
 0.39213370587E+01 0.36906999269E+01 0.34924125792E+01 0.33264987010E+01 0.31988602393E+01
 0.31105268717E+01 0.30588485733E+01 0.30395257421E+01 0.30487112067E+01 0.30846111378E+01
 0.31482595242E+01 0.32433077296E+01 0.33747788853E+01 0.35468964850E+01 0.37603885714E+01
 0.40100391797E+01 0.42836515048E+01 0.45922265206E+01 0.49898292098E+01 0.54939179636E+01
 0.49724565189E+01 0.52474520091E+01 0.54939179829E+01 0.56651368116E+01 0.57216471702E+01
 0.56443109452E+01 0.54405959071E+01 0.51424289727E+01 0.47968183485E+01 0.44526188796E+01
 0.41473732043E+01 0.38971480891E+01 0.36906999269E+01 0.35048015158E+01 0.33424928683E+01
 0.32101159755E+01 0.31108344655E+01 0.30445660799E+01 0.30087568926E+01 0.29996614932E+01
 0.30137217311E+01 0.30487112099E+01 0.31044176655E+01 0.31827178606E+01 0.32869728149E+01
 0.34207676455E+01 0.35861658389E+01 0.37818456009E+01 0.40016782894E+01 0.42343578509E+01
 0.44659299624E+01 0.47069312964E+01 0.44956342787E+01 0.46146287738E+01 0.47069313070E+01
 0.47613689281E+01 0.47631199701E+01 0.47026998412E+01 0.45817823284E+01 0.44140135392E+01
 0.42208164555E+01 0.40238694397E+01 0.38367554329E+01 0.36593870856E+01 0.34924125792E+01
 0.33424928683E+01 0.32151597723E+01 0.31141210965E+01 0.30409618202E+01 0.29952454335E+01
 0.29749961676E+01 0.29774162237E+01 0.29996614953E+01 0.30395257470E+01 0.30959122245E+01
 0.31689922622E+01 0.32599835229E+01 0.33705367576E+01 0.35017929154E+01 0.36532612468E+01
 0.38217745061E+01 0.40008617589E+01 0.41808575429E+01 0.43498754973E+01 0.42340375257E+01
 0.43077932700E+01 0.43498755014E+01 0.43563625743E+01 0.43260581733E+01 0.42606507162E+01
 0.41639842122E+01 0.40423209486E+01 0.39032803251E+01 0.37547040738E+01 0.36044142804E+01
 0.34596049553E+01 0.33264987010E+01 0.32101159755E+01 0.31141210965E+01 0.30407541810E+01
 0.29908836956E+01 0.29641948428E+01 0.29594836157E+01 0.29749961678E+01 0.30087568942E+01
 0.30588485769E+01 0.31236182477E+01 0.32017798433E+01 0.32923850331E+01 0.33946460481E+01
 0.35076139819E+01 0.36297415278E+01 0.37584012433E+01 0.38894895054E+01 0.40172873517E+01
 0.41347197186E+01 0.41078929051E+01 0.41335154376E+01 0.41347197179E+01 0.41103827262E+01
 0.40607314500E+01 0.39874882849E+01 0.38938654566E+01 0.37843887561E+01 0.36645551952E+01
 0.35403660810E+01 0.34178135826E+01 0.33024136654E+01 0.31988602393E+01 0.31108344655E+01
 0.30409618202E+01 0.29908836956E+01 0.29614000511E+01 0.29526369308E+01 0.29641948414E+01
 0.29952454313E+01 0.30445660778E+01 0.31105268702E+01 0.31910607150E+01 0.32836501306E+01
 0.33853561546E+01 0.34928982763E+01 0.36027711055E+01 0.37113617081E+01 0.38150278788E+01
 0.39101236056E+01 0.39930027126E+01 0.40600638385E+01 0.41335154363E+01 0.41078929020E+01
 0.40600638341E+01 0.39930027074E+01 0.39101236001E+01 0.38150278736E+01 0.37113617035E+01
 0.36027711018E+01 0.34928982735E+01 0.33853561529E+01 0.32836501300E+01 0.31910607155E+01
 0.31105268717E+01 0.30445660799E+01 0.29952454335E+01 0.29641948428E+01 0.29526369308E+01
 0.29614000490E+01 0.29908836910E+01 0.30409618133E+01 0.31108344568E+01 0.31988602298E+01
 0.33024136563E+01 0.34178135750E+01 0.35403660758E+01 0.36645551928E+01 0.37843887564E+01
 0.38938654589E+01 0.39874882883E+01 0.40607314534E+01 0.41103827286E+01 0.41347197186E+01
 0.43077932636E+01 0.42340375178E+01 0.41347197105E+01 0.40172873441E+01 0.38894894988E+01
 0.37584012375E+01 0.36297415223E+01 0.35076139761E+01 0.33946460418E+01 0.32923850264E+01
 0.32017798368E+01 0.31236182424E+01 0.30588485733E+01 0.30087568926E+01 0.29749961676E+01
 0.29594836157E+01 0.29641948414E+01 0.29908836910E+01 0.30407541722E+01 0.31141210833E+01
 0.32101159588E+01 0.33264986827E+01 0.34596049376E+01 0.36044142655E+01 0.37547040632E+01
 0.39032803194E+01 0.40423209471E+01 0.41639842135E+01 0.42606507183E+01 0.43260581743E+01