   1   1   1   0
  0.9841500E+01  0.2338269E-09  0.2338269E-09  0.2338269E-09  0.5000000E-15
  1.000000000000000E-004
  CAR 
 Fe BCC                                  
     52.25412415     -4.26177704  301      7.41812792      1.00000000
     -4.262  0.0000E+00  0.0000E+00  0.0000E+00  0.0000E+00
     -4.073  0.0000E+00  0.0000E+00  0.0000E+00  0.0000E+00
     -3.885  0.0000E+00  0.0000E+00  0.0000E+00  0.0000E+00
     -3.697  0.0000E+00  0.0000E+00  0.0000E+00  0.0000E+00
     -3.508  0.0000E+00  0.0000E+00  0.0000E+00  0.0000E+00
     -3.320  0.0000E+00  0.0000E+00  0.0000E+00  0.0000E+00
     -3.131  0.0000E+00  0.0000E+00  0.0000E+00  0.0000E+00
     -2.943  0.0000E+00  0.0000E+00  0.0000E+00  0.0000E+00
     -2.755  0.0000E+00  0.0000E+00  0.0000E+00  0.0000E+00
     -2.566  0.0000E+00  0.0000E+00  0.0000E+00  0.0000E+00
     -2.378  0.0000E+00  0.0000E+00  0.0000E+00  0.0000E+00
     -2.190  0.0000E+00  0.0000E+00  0.0000E+00  0.0000E+00
     -2.001  0.0000E+00  0.0000E+00  0.0000E+00  0.0000E+00
     -1.813  0.0000E+00  0.0000E+00  0.0000E+00  0.0000E+00
     -1.624  0.1091E-01  0.0000E+00  0.1321E-02  0.0000E+00
     -1.436  0.1658E-01  0.0000E+00  0.3924E-02  0.0000E+00
     -1.248  0.2140E-01  0.1110E-01  0.7515E-02  0.1443E-02
     -1.059  0.2536E-01  0.1654E-01  0.1193E-01  0.4061E-02
     -0.871  0.3170E-01  0.2112E-01  0.1724E-01  0.7622E-02
     -0.682  0.3799E-01  0.2484E-01  0.2382E-01  0.1196E-01
     -0.494  0.4286E-01  0.3087E-01  0.3146E-01  0.1715E-01
     -0.306  0.4442E-01  0.3668E-01  0.3973E-01  0.2354E-01
     -0.117  0.4986E-01  0.4104E-01  0.4860E-01  0.3088E-01
      0.071  0.5586E-01  0.4163E-01  0.5855E-01  0.3877E-01
      0.259  0.6240E-01  0.4599E-01  0.6968E-01  0.4702E-01
      0.448  0.6950E-01  0.5071E-01  0.8210E-01  0.5612E-01
      0.636  0.7715E-01  0.5579E-01  0.9590E-01  0.6615E-01
      0.825  0.8910E-01  0.6122E-01  0.1113E+00  0.7716E-01
      1.013  0.1086E+00  0.6701E-01  0.1299E+00  0.8924E-01
      1.201  0.1296E+00  0.7243E-01  0.1523E+00  0.1024E+00
      1.390  0.1642E+00  0.8305E-01  0.1795E+00  0.1171E+00
      1.578  0.2223E+00  0.9386E-01  0.2156E+00  0.1337E+00
      1.767  0.4156E+00  0.1041E+00  0.2728E+00  0.1524E+00
      1.955  0.5192E+00  0.1170E+00  0.3643E+00  0.1731E+00
      2.143  0.6399E+00  0.1363E+00  0.4709E+00  0.1969E+00
      2.332  0.9931E+00  0.1597E+00  0.6283E+00  0.2248E+00
      2.520  0.8291E+00  0.1870E+00  0.8022E+00  0.2573E+00
      2.709  0.5669E+00  0.2182E+00  0.9368E+00  0.2954E+00
      2.897  0.4052E+00  0.3755E+00  0.1025E+01  0.3632E+00
      3.085  0.2545E+00  0.4182E+00  0.1088E+01  0.4380E+00
      3.274  0.3289E+00  0.5170E+00  0.1148E+01  0.5268E+00
      3.462  0.1359E+01  0.5808E+00  0.1338E+01  0.6301E+00
      3.650  0.1212E+01  0.7894E+00  0.1595E+01  0.7630E+00
      3.839  0.6930E+00  0.5958E+00  0.1778E+01  0.8959E+00
      4.027  0.5979E+00  0.3936E+00  0.1894E+01  0.9870E+00
      4.216  0.7226E+00  0.2629E+00  0.2019E+01  0.1051E+01
      4.404  0.1116E+01  0.2137E+00  0.2185E+01  0.1094E+01
      4.592  0.1606E+01  0.4910E+00  0.2450E+01  0.1140E+01
      4.781  0.6825E+00  0.1139E+01  0.2678E+01  0.1320E+01
      4.969  0.3723E+00  0.1171E+01  0.2766E+01  0.1548E+01
      5.158  0.3201E+00  0.7660E+00  0.2830E+01  0.1743E+01
      5.346  0.3089E+00  0.7582E+00  0.2889E+01  0.1885E+01
      5.534  0.3353E+00  0.8042E+00  0.2948E+01  0.2031E+01
      5.723  0.4742E+00  0.1046E+01  0.3030E+01  0.2199E+01
      5.911  0.6603E+00  0.1313E+01  0.3134E+01  0.2421E+01
      6.099  0.1166E+01  0.9571E+00  0.3307E+01  0.2645E+01
      6.288  0.1638E+01  0.3767E+00  0.3569E+01  0.2776E+01
      6.476  0.1690E+01  0.2690E+00  0.3889E+01  0.2834E+01
      6.665  0.1455E+01  0.2261E+00  0.4164E+01  0.2880E+01
      6.853  0.1110E+01  0.2068E+00  0.4485E+01  0.2921E+01
      7.041  0.8382E+00  0.2158E+00  0.4667E+01  0.2961E+01
      7.230  0.6960E+00  0.2810E+00  0.4805E+01  0.3008E+01
      7.418  0.6667E+00  0.3618E+00  0.4932E+01  0.3068E+01
      7.607  0.8680E+00  0.5176E+00  0.5072E+01  0.3148E+01
      7.795  0.3356E+00  0.7505E+00  0.5205E+01  0.3270E+01
      7.983  0.1345E+00  0.1096E+01  0.5246E+01  0.3443E+01
      8.172  0.1526E+00  0.1320E+01  0.5272E+01  0.3676E+01
      8.360  0.1536E+00  0.1243E+01  0.5301E+01  0.3930E+01
      8.548  0.1543E+00  0.1157E+01  0.5330E+01  0.4145E+01
      8.737  0.1485E+00  0.1661E+01  0.5359E+01  0.4371E+01
      8.925  0.1412E+00  0.1104E+01  0.5386E+01  0.4700E+01
      9.114  0.1357E+00  0.8507E+00  0.5412E+01  0.4877E+01
      9.302  0.1354E+00  0.9119E+00  0.5437E+01  0.5040E+01
      9.490  0.1352E+00  0.4659E+00  0.5463E+01  0.5200E+01
      9.679  0.1352E+00  0.1746E+00  0.5488E+01  0.5248E+01
      9.867  0.1353E+00  0.1923E+00  0.5514E+01  0.5284E+01
     10.056  0.1355E+00  0.1914E+00  0.5539E+01  0.5320E+01
     10.244  0.1347E+00  0.1808E+00  0.5565E+01  0.5355E+01
     10.432  0.1328E+00  0.1673E+00  0.5590E+01  0.5388E+01
     10.621  0.1299E+00  0.1594E+00  0.5615E+01  0.5419E+01
     10.809  0.1336E+00  0.1577E+00  0.5640E+01  0.5449E+01
     10.998  0.1261E+00  0.1566E+00  0.5664E+01  0.5478E+01
     11.186  0.1216E+00  0.1562E+00  0.5688E+01  0.5508E+01
     11.374  0.1265E+00  0.1554E+00  0.5711E+01  0.5537E+01
     11.563  0.1158E+00  0.1530E+00  0.5735E+01  0.5566E+01
     11.751  0.1115E+00  0.1490E+00  0.5756E+01  0.5594E+01
     11.939  0.1072E+00  0.1533E+00  0.5777E+01  0.5623E+01
     12.128  0.1029E+00  0.1411E+00  0.5797E+01  0.5650E+01
     12.316  0.9874E-01  0.1333E+00  0.5816E+01  0.5676E+01
     12.505  0.9458E-01  0.1337E+00  0.5834E+01  0.5701E+01
     12.693  0.8948E-01  0.1422E+00  0.5851E+01  0.5727E+01
     12.881  0.8353E-01  0.1216E+00  0.5868E+01  0.5751E+01
     13.070  0.7763E-01  0.1165E+00  0.5883E+01  0.5773E+01
     13.258  0.7180E-01  0.1115E+00  0.5897E+01  0.5795E+01
     13.447  0.7512E-01  0.1067E+00  0.5911E+01  0.5815E+01
     13.635  0.6786E-01  0.1019E+00  0.5924E+01  0.5835E+01
     13.823  0.5770E-01  0.9679E-01  0.5936E+01  0.5854E+01
     14.012  0.4249E-01  0.8990E-01  0.5945E+01  0.5871E+01
     14.200  0.3907E-01  0.8308E-01  0.5953E+01  0.5888E+01
     14.388  0.3586E-01  0.8432E-01  0.5960E+01  0.5904E+01
     14.577  0.3007E-01  0.7616E-01  0.5967E+01  0.5919E+01
     14.765  0.2351E-01  0.6570E-01  0.5972E+01  0.5932E+01
     14.954  0.1879E-01  0.4758E-01  0.5976E+01  0.5943E+01
     15.142  0.1590E-01  0.4356E-01  0.5980E+01  0.5951E+01
     15.330  0.1488E-01  0.3978E-01  0.5982E+01  0.5959E+01
     15.519  0.1588E-01  0.3479E-01  0.5985E+01  0.5967E+01
     15.707  0.1892E-01  0.2698E-01  0.5989E+01  0.5973E+01
     15.896  0.2400E-01  0.2113E-01  0.5993E+01  0.5978E+01
     16.084  0.3112E-01  0.1721E-01  0.5998E+01  0.5981E+01
     16.272  0.6624E-01  0.1525E-01  0.6007E+01  0.5984E+01
     16.461  0.1048E+00  0.1528E-01  0.6023E+01  0.5987E+01
     16.649  0.1703E+00  0.1734E-01  0.6050E+01  0.5990E+01
     16.837  0.2153E+00  0.2144E-01  0.6086E+01  0.5994E+01
     17.026  0.2568E+00  0.2980E-01  0.6130E+01  0.6000E+01
     17.214  0.2623E+00  0.3629E-01  0.6179E+01  0.6006E+01
     17.403  0.3514E+00  0.7183E-01  0.6230E+01  0.6015E+01
     17.591  0.1831E+00  0.1384E+00  0.6269E+01  0.6034E+01
     17.779  0.1784E+00  0.2003E+00  0.6304E+01  0.6068E+01
     17.968  0.1732E+00  0.2502E+00  0.6337E+01  0.6111E+01
     18.156  0.1676E+00  0.2829E+00  0.6369E+01  0.6162E+01
     18.345  0.1624E+00  0.2895E+00  0.6400E+01  0.6216E+01
     18.533  0.1645E+00  0.1988E+00  0.6431E+01  0.6264E+01
     18.721  0.1714E+00  0.1929E+00  0.6464E+01  0.6301E+01
     18.910  0.1618E+00  0.1864E+00  0.6495E+01  0.6337E+01
     19.098  0.1470E+00  0.1874E+00  0.6524E+01  0.6372E+01
     19.287  0.1580E+00  0.1884E+00  0.6553E+01  0.6408E+01
     19.475  0.1640E+00  0.1540E+00  0.6583E+01  0.6447E+01
     19.663  0.1709E+00  0.1537E+00  0.6615E+01  0.6476E+01
     19.852  0.1848E+00  0.1565E+00  0.6649E+01  0.6505E+01
     20.040  0.1877E+00  0.1670E+00  0.6685E+01  0.6536E+01
     20.228  0.1902E+00  0.1725E+00  0.6720E+01  0.6568E+01
     20.417  0.1930E+00  0.1786E+00  0.6756E+01  0.6601E+01
     20.605  0.1958E+00  0.1936E+00  0.6793E+01  0.6637E+01
     20.794  0.1975E+00  0.1961E+00  0.6830E+01  0.6673E+01
     20.982  0.1979E+00  0.1989E+00  0.6867E+01  0.6711E+01
     21.170  0.1969E+00  0.2016E+00  0.6904E+01  0.6748E+01
     21.359  0.1905E+00  0.2038E+00  0.6945E+01  0.6787E+01
     21.547  0.1805E+00  0.2055E+00  0.6979E+01  0.6825E+01
     21.736  0.1784E+00  0.2055E+00  0.7013E+01  0.6864E+01
     21.924  0.1763E+00  0.2258E+00  0.7047E+01  0.6904E+01
     22.112  0.1745E+00  0.1971E+00  0.7080E+01  0.6943E+01
     22.301  0.1740E+00  0.1862E+00  0.7113E+01  0.6979E+01
     22.489  0.1730E+00  0.1841E+00  0.7145E+01  0.7014E+01
     22.677  0.1719E+00  0.1821E+00  0.7178E+01  0.7048E+01
     22.866  0.1774E+00  0.1801E+00  0.7210E+01  0.7082E+01
     23.054  0.1722E+00  0.1795E+00  0.7243E+01  0.7116E+01
     23.243  0.1684E+00  0.1785E+00  0.7275E+01  0.7150E+01
     23.431  0.1672E+00  0.1776E+00  0.7307E+01  0.7184E+01
     23.619  0.1655E+00  0.1770E+00  0.7338E+01  0.7217E+01
     23.808  0.1640E+00  0.1797E+00  0.7369E+01  0.7251E+01
     23.996  0.1632E+00  0.1740E+00  0.7400E+01  0.7285E+01
     24.185  0.1623E+00  0.1730E+00  0.7431E+01  0.7317E+01
     24.373  0.1614E+00  0.1710E+00  0.7461E+01  0.7350E+01
     24.561  0.1605E+00  0.1703E+00  0.7492E+01  0.7382E+01
     24.750  0.1654E+00  0.1696E+00  0.7523E+01  0.7414E+01
     24.938  0.1671E+00  0.1690E+00  0.7554E+01  0.7446E+01
     25.126  0.1703E+00  0.1683E+00  0.7586E+01  0.7478E+01
     25.315  0.1746E+00  0.1675E+00  0.7618E+01  0.7509E+01
     25.503  0.1812E+00  0.1667E+00  0.7652E+01  0.7541E+01
     25.692  0.1977E+00  0.1657E+00  0.7687E+01  0.7572E+01
     25.880  0.1964E+00  0.1734E+00  0.7724E+01  0.7604E+01
     26.068  0.2083E+00  0.1776E+00  0.7763E+01  0.7637E+01
     26.257  0.2180E+00  0.1829E+00  0.7803E+01  0.7671E+01
     26.445  0.2298E+00  0.1915E+00  0.7845E+01  0.7707E+01
     26.634  0.2252E+00  0.2176E+00  0.7889E+01  0.7745E+01
     26.822  0.2288E+00  0.2098E+00  0.7932E+01  0.7784E+01
     27.010  0.2216E+00  0.2293E+00  0.7974E+01  0.7826E+01
     27.199  0.2238E+00  0.2395E+00  0.8016E+01  0.7871E+01
     27.387  0.2276E+00  0.2245E+00  0.8059E+01  0.7914E+01
     27.576  0.2342E+00  0.2281E+00  0.8103E+01  0.7957E+01
     27.764  0.2380E+00  0.2311E+00  0.8148E+01  0.8000E+01
     27.952  0.2465E+00  0.2335E+00  0.8194E+01  0.8044E+01
     28.141  0.2547E+00  0.2396E+00  0.8241E+01  0.8088E+01
     28.329  0.2632E+00  0.2565E+00  0.8290E+01  0.8134E+01
     28.517  0.2726E+00  0.2506E+00  0.8341E+01  0.8182E+01
     28.706  0.2944E+00  0.2581E+00  0.8393E+01  0.8230E+01
     28.894  0.2861E+00  0.2654E+00  0.8450E+01  0.8279E+01
     29.083  0.2780E+00  0.2771E+00  0.8503E+01  0.8330E+01
     29.271  0.2688E+00  0.2895E+00  0.8555E+01  0.8383E+01
     29.459  0.2591E+00  0.3054E+00  0.8604E+01  0.8441E+01
     29.648  0.2491E+00  0.2915E+00  0.8652E+01  0.8497E+01
     29.836  0.2390E+00  0.2779E+00  0.8698E+01  0.8551E+01
     30.025  0.2272E+00  0.2654E+00  0.8742E+01  0.8602E+01
     30.213  0.2139E+00  0.2546E+00  0.8784E+01  0.8651E+01
     30.401  0.2020E+00  0.2432E+00  0.8823E+01  0.8698E+01
     30.590  0.1857E+00  0.2303E+00  0.8860E+01  0.8743E+01
     30.778  0.1696E+00  0.2175E+00  0.8893E+01  0.8785E+01
     30.966  0.1579E+00  0.2049E+00  0.8924E+01  0.8825E+01
     31.155  0.1430E+00  0.1847E+00  0.8952E+01  0.8862E+01
     31.343  0.1363E+00  0.1706E+00  0.8978E+01  0.8895E+01
     31.532  0.1410E+00  0.1532E+00  0.9005E+01  0.8926E+01
     31.720  0.1452E+00  0.1448E+00  0.9032E+01  0.8954E+01
     31.908  0.1419E+00  0.1389E+00  0.9059E+01  0.8980E+01
     32.097  0.1383E+00  0.1445E+00  0.9086E+01  0.9007E+01
     32.285  0.1382E+00  0.1473E+00  0.9112E+01  0.9035E+01
     32.474  0.1502E+00  0.1451E+00  0.9139E+01  0.9063E+01
     32.662  0.1326E+00  0.1455E+00  0.9167E+01  0.9091E+01
     32.850  0.1326E+00  0.1455E+00  0.9191E+01  0.9118E+01
     33.039  0.1358E+00  0.1538E+00  0.9217E+01  0.9147E+01
     33.227  0.1390E+00  0.1318E+00  0.9243E+01  0.9173E+01
     33.415  0.1390E+00  0.1367E+00  0.9270E+01  0.9199E+01
     33.604  0.1411E+00  0.1391E+00  0.9297E+01  0.9225E+01
     33.792  0.1459E+00  0.1344E+00  0.9324E+01  0.9252E+01
     33.981  0.1529E+00  0.1335E+00  0.9352E+01  0.9277E+01
     34.169  0.2032E+00  0.1346E+00  0.9384E+01  0.9303E+01
     34.357  0.2847E+00  0.1391E+00  0.9430E+01  0.9328E+01
     34.546  0.2908E+00  0.1466E+00  0.9495E+01  0.9355E+01
     34.734  0.2620E+00  0.1963E+00  0.9547E+01  0.9386E+01
     34.923  0.2231E+00  0.2633E+00  0.9593E+01  0.9430E+01
     35.111  0.2037E+00  0.3590E+00  0.9632E+01  0.9488E+01
     35.299  0.1692E+00  0.3030E+00  0.9667E+01  0.9549E+01
     35.488  0.1665E+00  0.2316E+00  0.9699E+01  0.9600E+01
     35.676  0.1617E+00  0.2024E+00  0.9730E+01  0.9643E+01
     35.865  0.1561E+00  0.1718E+00  0.9759E+01  0.9677E+01
     36.053  0.1503E+00  0.1654E+00  0.9788E+01  0.9709E+01
     36.241  0.1442E+00  0.1586E+00  0.9816E+01  0.9739E+01
     36.430  0.1379E+00  0.1514E+00  0.9843E+01  0.9769E+01
     36.618  0.1610E+00  0.1461E+00  0.9869E+01  0.9797E+01
     36.806  0.1813E+00  0.1412E+00  0.9902E+01  0.9824E+01
     36.995  0.1530E+00  0.1356E+00  0.9933E+01  0.9850E+01
     37.183  0.1444E+00  0.1479E+00  0.9961E+01  0.9876E+01
     37.372  0.1441E+00  0.1797E+00  0.9988E+01  0.9906E+01
     37.560  0.2172E+00  0.1501E+00  0.1003E+02  0.9940E+01
     37.748  0.2442E+00  0.1465E+00  0.1007E+02  0.9968E+01
     37.937  0.2841E+00  0.1417E+00  0.1012E+02  0.9995E+01
     38.125  0.3052E+00  0.2033E+00  0.1018E+02  0.1004E+02
     38.314  0.3164E+00  0.2400E+00  0.1024E+02  0.1008E+02
     38.502  0.3178E+00  0.2720E+00  0.1030E+02  0.1012E+02
     38.690  0.3089E+00  0.3121E+00  0.1036E+02  0.1018E+02
     38.879  0.2939E+00  0.3226E+00  0.1041E+02  0.1024E+02
     39.067  0.2905E+00  0.3173E+00  0.1047E+02  0.1030E+02
     39.255  0.2765E+00  0.3059E+00  0.1052E+02  0.1036E+02
     39.444  0.2558E+00  0.2916E+00  0.1057E+02  0.1042E+02
     39.632  0.2440E+00  0.2899E+00  0.1062E+02  0.1047E+02
     39.821  0.2356E+00  0.2789E+00  0.1067E+02  0.1052E+02
     40.009  0.2246E+00  0.2614E+00  0.1071E+02  0.1057E+02
     40.197  0.2193E+00  0.2488E+00  0.1075E+02  0.1062E+02
     40.386  0.2149E+00  0.2413E+00  0.1079E+02  0.1067E+02
     40.574  0.2308E+00  0.2342E+00  0.1083E+02  0.1071E+02
     40.763  0.2148E+00  0.2246E+00  0.1088E+02  0.1076E+02
     40.951  0.1905E+00  0.2210E+00  0.1091E+02  0.1080E+02
     41.139  0.1935E+00  0.2218E+00  0.1095E+02  0.1084E+02
     41.328  0.2009E+00  0.2417E+00  0.1099E+02  0.1089E+02
     41.516  0.2133E+00  0.1954E+00  0.1103E+02  0.1093E+02
     41.704  0.2261E+00  0.1974E+00  0.1107E+02  0.1096E+02
     41.893  0.2524E+00  0.2038E+00  0.1111E+02  0.1100E+02
     42.081  0.2659E+00  0.2137E+00  0.1116E+02  0.1104E+02
     42.270  0.2781E+00  0.2309E+00  0.1121E+02  0.1108E+02
     42.458  0.3394E+00  0.2423E+00  0.1127E+02  0.1113E+02
     42.646  0.3062E+00  0.2591E+00  0.1133E+02  0.1117E+02
     42.835  0.2871E+00  0.2720E+00  0.1138E+02  0.1122E+02
     43.023  0.2485E+00  0.2926E+00  0.1143E+02  0.1128E+02
     43.212  0.2153E+00  0.2850E+00  0.1148E+02  0.1133E+02
     43.400  0.2071E+00  0.2790E+00  0.1152E+02  0.1139E+02
     43.588  0.1935E+00  0.2658E+00  0.1156E+02  0.1144E+02
     43.777  0.1866E+00  0.2142E+00  0.1159E+02  0.1148E+02
     43.965  0.1798E+00  0.2011E+00  0.1163E+02  0.1152E+02
     44.154  0.1732E+00  0.1941E+00  0.1166E+02  0.1156E+02
     44.342  0.1668E+00  0.1873E+00  0.1169E+02  0.1160E+02
     44.530  0.1662E+00  0.1807E+00  0.1172E+02  0.1163E+02
     44.719  0.1691E+00  0.1744E+00  0.1175E+02  0.1166E+02
     44.907  0.1648E+00  0.1682E+00  0.1179E+02  0.1170E+02
     45.095  0.1652E+00  0.1708E+00  0.1182E+02  0.1173E+02
     45.284  0.1487E+00  0.1685E+00  0.1185E+02  0.1176E+02
     45.472  0.9008E-01  0.1593E+00  0.1187E+02  0.1179E+02
     45.661  0.6735E-01  0.1566E+00  0.1189E+02  0.1182E+02
     45.849  0.6291E-01  0.1389E+00  0.1190E+02  0.1185E+02
     46.037  0.5863E-01  0.1022E+00  0.1191E+02  0.1187E+02
     46.226  0.5452E-01  0.6743E-01  0.1192E+02  0.1189E+02
     46.414  0.5056E-01  0.6293E-01  0.1193E+02  0.1190E+02
     46.603  0.4677E-01  0.5858E-01  0.1194E+02  0.1191E+02
     46.791  0.4314E-01  0.5440E-01  0.1195E+02  0.1192E+02
     46.979  0.3967E-01  0.5039E-01  0.1196E+02  0.1193E+02
     47.168  0.3635E-01  0.4655E-01  0.1196E+02  0.1194E+02
     47.356  0.3321E-01  0.4287E-01  0.1197E+02  0.1195E+02
     47.544  0.2620E-01  0.3935E-01  0.1198E+02  0.1196E+02
     47.733  0.2387E-01  0.3144E-01  0.1198E+02  0.1197E+02
     47.921  0.2169E-01  0.2878E-01  0.1199E+02  0.1197E+02
     48.110  0.1964E-01  0.2626E-01  0.1199E+02  0.1198E+02
     48.298  0.1609E-01  0.2389E-01  0.1200E+02  0.1198E+02
     48.486  0.9744E-02  0.2165E-01  0.1200E+02  0.1199E+02
     48.675  0.5197E-02  0.1956E-01  0.1200E+02  0.1199E+02
     48.863  0.5502E-03  0.1463E-01  0.1200E+02  0.1200E+02
     49.052  0.0000E+00  0.9439E-02  0.1200E+02  0.1200E+02
     49.240  0.0000E+00  0.3371E-02  0.1200E+02  0.1200E+02
     49.428  0.0000E+00  0.1122E-02  0.1200E+02  0.1200E+02
     49.617  0.0000E+00  0.7980E-04  0.1200E+02  0.1200E+02
     49.805  0.0000E+00  0.0000E+00  0.1200E+02  0.1200E+02
     49.993  0.0000E+00  0.0000E+00  0.1200E+02  0.1200E+02
     50.182  0.0000E+00  0.0000E+00  0.1200E+02  0.1200E+02
     50.370  0.0000E+00  0.0000E+00  0.1200E+02  0.1200E+02
     50.559  0.0000E+00  0.0000E+00  0.1200E+02  0.1200E+02
     50.747  0.0000E+00  0.0000E+00  0.1200E+02  0.1200E+02
     50.935  0.0000E+00  0.0000E+00  0.1200E+02  0.1200E+02
     51.124  0.0000E+00  0.0000E+00  0.1200E+02  0.1200E+02
     51.312  0.0000E+00  0.0000E+00  0.1200E+02  0.1200E+02
     51.501  0.0000E+00  0.0000E+00  0.1200E+02  0.1200E+02
     51.689  0.0000E+00  0.0000E+00  0.1200E+02  0.1200E+02
     51.877  0.0000E+00  0.0000E+00  0.1200E+02  0.1200E+02
     52.066  0.0000E+00  0.0000E+00  0.1200E+02  0.1200E+02
     52.254  0.0000E+00  0.0000E+00  0.1200E+02  0.1200E+02
     52.25412415     -4.26177704  301      7.41812792      1.00000000
     -4.262  0.0000E+00  0.0000E+00  0.0000E+00  0.0000E+00  0.0000E+00  0.0000E+00  0.0000E+00  0.0000E+00  0.0000E+00  0.0000E+00  0.0000E+00  0.0000E+00  0.0000E+00  0.0000E+00  0.0000E+00  0.0000E+00  0.0000E+00  0.0000E+00
     -4.073  0.0000E+00  0.0000E+00  0.0000E+00  0.0000E+00  0.0000E+00  0.0000E+00  0.0000E+00  0.0000E+00  0.0000E+00  0.0000E+00  0.0000E+00  0.0000E+00  0.0000E+00  0.0000E+00  0.0000E+00  0.0000E+00  0.0000E+00  0.0000E+00
     -3.885  0.0000E+00  0.0000E+00  0.0000E+00  0.0000E+00  0.0000E+00  0.0000E+00  0.0000E+00  0.0000E+00  0.0000E+00  0.0000E+00  0.0000E+00  0.0000E+00  0.0000E+00  0.0000E+00  0.0000E+00  0.0000E+00  0.0000E+00  0.0000E+00
     -3.697  0.0000E+00  0.0000E+00  0.0000E+00  0.0000E+00  0.0000E+00  0.0000E+00  0.0000E+00  0.0000E+00  0.0000E+00  0.0000E+00  0.0000E+00  0.0000E+00  0.0000E+00  0.0000E+00  0.0000E+00  0.0000E+00  0.0000E+00  0.0000E+00
     -3.508  0.0000E+00  0.0000E+00  0.0000E+00  0.0000E+00  0.0000E+00  0.0000E+00  0.0000E+00  0.0000E+00  0.0000E+00  0.0000E+00  0.0000E+00  0.0000E+00  0.0000E+00  0.0000E+00  0.0000E+00  0.0000E+00  0.0000E+00  0.0000E+00
     -3.320  0.0000E+00  0.0000E+00  0.0000E+00  0.0000E+00  0.0000E+00  0.0000E+00  0.0000E+00  0.0000E+00  0.0000E+00  0.0000E+00  0.0000E+00  0.0000E+00  0.0000E+00  0.0000E+00  0.0000E+00  0.0000E+00  0.0000E+00  0.0000E+00
     -3.131  0.0000E+00  0.0000E+00  0.0000E+00  0.0000E+00  0.0000E+00  0.0000E+00  0.0000E+00  0.0000E+00  0.0000E+00  0.0000E+00  0.0000E+00  0.0000E+00  0.0000E+00  0.0000E+00  0.0000E+00  0.0000E+00  0.0000E+00  0.0000E+00
     -2.943  0.0000E+00  0.0000E+00  0.0000E+00  0.0000E+00  0.0000E+00  0.0000E+00  0.0000E+00  0.0000E+00  0.0000E+00  0.0000E+00  0.0000E+00  0.0000E+00  0.0000E+00  0.0000E+00  0.0000E+00  0.0000E+00  0.0000E+00  0.0000E+00
     -2.755  0.0000E+00  0.0000E+00  0.0000E+00  0.0000E+00  0.0000E+00  0.0000E+00  0.0000E+00  0.0000E+00  0.0000E+00  0.0000E+00  0.0000E+00  0.0000E+00  0.0000E+00  0.0000E+00  0.0000E+00  0.0000E+00  0.0000E+00  0.0000E+00
     -2.566  0.0000E+00  0.0000E+00  0.0000E+00  0.0000E+00  0.0000E+00  0.0000E+00  0.0000E+00  0.0000E+00  0.0000E+00  0.0000E+00  0.0000E+00  0.0000E+00  0.0000E+00  0.0000E+00  0.0000E+00  0.0000E+00  0.0000E+00  0.0000E+00
     -2.378  0.0000E+00  0.0000E+00  0.0000E+00  0.0000E+00  0.0000E+00  0.0000E+00  0.0000E+00  0.0000E+00  0.0000E+00  0.0000E+00  0.0000E+00  0.0000E+00  0.0000E+00  0.0000E+00  0.0000E+00  0.0000E+00  0.0000E+00  0.0000E+00
     -2.190  0.0000E+00  0.0000E+00  0.0000E+00  0.0000E+00  0.0000E+00  0.0000E+00  0.0000E+00  0.0000E+00  0.0000E+00  0.0000E+00  0.0000E+00  0.0000E+00  0.0000E+00  0.0000E+00  0.0000E+00  0.0000E+00  0.0000E+00  0.0000E+00
     -2.001  0.0000E+00  0.0000E+00  0.0000E+00  0.0000E+00  0.0000E+00  0.0000E+00  0.0000E+00  0.0000E+00  0.0000E+00  0.0000E+00  0.0000E+00  0.0000E+00  0.0000E+00  0.0000E+00  0.0000E+00  0.0000E+00  0.0000E+00  0.0000E+00
     -1.813  0.0000E+00  0.0000E+00  0.0000E+00  0.0000E+00  0.0000E+00  0.0000E+00  0.0000E+00  0.0000E+00  0.0000E+00  0.0000E+00  0.0000E+00  0.0000E+00  0.0000E+00  0.0000E+00  0.0000E+00  0.0000E+00  0.0000E+00  0.0000E+00
     -1.624  0.8844E-02  0.0000E+00  0.9644E-04  0.0000E+00  0.6565E-04  0.0000E+00  0.4152E-03  0.0000E+00  0.2940E-04  0.0000E+00  0.7598E-05  0.0000E+00  0.1054E-04  0.0000E+00  0.7243E-05  0.0000E+00  0.1173E-04  0.0000E+00
     -1.436  0.1319E-01  0.0000E+00  0.2086E-03  0.0000E+00  0.1315E-03  0.0000E+00  0.7361E-03  0.0000E+00  0.7105E-04  0.0000E+00  0.2059E-04  0.0000E+00  0.2628E-04  0.0000E+00  0.1559E-04  0.0000E+00  0.2908E-04  0.0000E+00
     -1.248  0.1674E-01  0.9072E-02  0.3236E-03  0.1031E-03  0.1858E-03  0.6961E-04  0.1093E-02  0.4296E-03  0.1232E-03  0.2413E-04  0.3907E-04  0.6550E-05  0.4827E-04  0.8428E-05  0.2404E-04  0.6224E-05  0.5581E-04  0.9788E-05
     -1.059  0.1948E-01  0.1328E-01  0.4416E-03  0.2141E-03  0.2286E-03  0.1337E-03  0.1486E-02  0.7451E-03  0.1859E-03  0.5565E-04  0.6302E-04  0.1635E-04  0.7650E-04  0.2004E-04  0.3260E-04  0.1272E-04  0.9193E-04  0.2298E-04
     -0.871  0.2384E-01  0.1669E-01  0.6528E-03  0.3279E-03  0.3346E-03  0.1867E-03  0.2060E-02  0.1095E-02  0.2874E-03  0.9460E-04  0.1279E-03  0.2963E-04  0.1215E-03  0.3601E-04  0.5226E-04  0.1914E-04  0.1490E-03  0.4271E-04
     -0.682  0.2792E-01  0.1930E-01  0.9080E-03  0.4447E-03  0.4912E-03  0.2285E-03  0.2648E-02  0.1478E-02  0.4266E-03  0.1410E-03  0.2510E-03  0.4639E-04  0.1853E-03  0.5632E-04  0.9066E-04  0.2548E-04  0.2290E-03  0.6900E-04
     -0.494  0.3066E-01  0.2352E-01  0.1172E-02  0.6541E-03  0.6737E-03  0.3341E-03  0.3177E-02  0.2036E-02  0.5943E-03  0.2154E-03  0.4245E-03  0.9167E-04  0.2651E-03  0.8786E-04  0.1457E-03  0.4026E-04  0.3288E-03  0.1097E-03
     -0.306  0.3008E-01  0.2737E-01  0.1422E-02  0.9033E-03  0.9093E-03  0.4871E-03  0.3733E-02  0.2598E-02  0.8408E-03  0.3129E-03  0.6950E-03  0.1743E-03  0.4153E-03  0.1299E-03  0.2519E-03  0.6758E-04  0.5560E-03  0.1644E-03
     -0.117  0.3262E-01  0.2990E-01  0.1667E-02  0.1160E-02  0.1101E-02  0.6650E-03  0.4411E-02  0.3100E-02  0.1255E-02  0.4273E-03  0.9047E-03  0.2891E-03  0.6553E-03  0.1805E-03  0.3574E-03  0.1058E-03  0.7651E-03  0.2310E-03
      0.071  0.3533E-01  0.2887E-01  0.1922E-02  0.1402E-02  0.1303E-02  0.8981E-03  0.5168E-02  0.3585E-02  0.1756E-02  0.5767E-03  0.1151E-02  0.4692E-03  0.9519E-03  0.2664E-03  0.4881E-03  0.1776E-03  0.1011E-02  0.3787E-03
      0.259  0.3820E-01  0.3102E-01  0.2187E-02  0.1634E-02  0.1513E-02  0.1079E-02  0.6007E-02  0.4190E-02  0.2342E-02  0.8312E-03  0.1435E-02  0.5982E-03  0.1305E-02  0.4000E-03  0.6439E-03  0.2445E-03  0.1293E-02  0.5112E-03
      0.448  0.4123E-01  0.3327E-01  0.2462E-02  0.1874E-02  0.1732E-02  0.1267E-02  0.6925E-02  0.4862E-02  0.3014E-02  0.1133E-02  0.1755E-02  0.7472E-03  0.1715E-02  0.5617E-03  0.8249E-03  0.3254E-03  0.1612E-02  0.6648E-03
      0.636  0.4442E-01  0.3564E-01  0.2746E-02  0.2122E-02  0.1961E-02  0.1462E-02  0.7924E-02  0.5601E-02  0.3772E-02  0.1482E-02  0.2111E-02  0.9161E-03  0.2181E-02  0.7515E-03  0.1031E-02  0.4205E-03  0.1968E-02  0.8393E-03
      0.825  0.4839E-01  0.3812E-01  0.3229E-02  0.2378E-02  0.2446E-02  0.1664E-02  0.9232E-02  0.6406E-02  0.5131E-02  0.1878E-02  0.3254E-02  0.1105E-02  0.3106E-02  0.9695E-03  0.1594E-02  0.5297E-03  0.2559E-02  0.1035E-02
      1.013  0.5427E-01  0.4071E-01  0.3911E-02  0.2642E-02  0.3164E-02  0.1873E-02  0.1122E-01  0.7277E-02  0.7617E-02  0.2322E-02  0.5383E-02  0.1314E-02  0.4945E-02  0.1216E-02  0.2409E-02  0.6530E-03  0.3729E-02  0.1251E-02
      1.201  0.5904E-01  0.4259E-01  0.4436E-02  0.2888E-02  0.3804E-02  0.2116E-02  0.1352E-01  0.8169E-02  0.1086E-01  0.2846E-02  0.7932E-02  0.1636E-02  0.7549E-02  0.1533E-02  0.3375E-02  0.8771E-03  0.5367E-02  0.1495E-02
      1.390  0.6598E-01  0.4622E-01  0.4881E-02  0.3413E-02  0.4263E-02  0.2656E-02  0.1684E-01  0.9509E-02  0.1829E-01  0.3924E-02  0.1197E-01  0.2579E-02  0.1318E-01  0.2217E-02  0.4462E-02  0.1251E-02  0.7984E-02  0.1984E-02
      1.578  0.7765E-01  0.4920E-01  0.5509E-02  0.3862E-02  0.4836E-02  0.3173E-02  0.2096E-01  0.1099E-01  0.3258E-01  0.5218E-02  0.1885E-01  0.3691E-02  0.2384E-01  0.3123E-02  0.5693E-02  0.1675E-02  0.1164E-01  0.2664E-02
      1.767  0.1083E+00  0.5096E-01  0.6499E-02  0.4154E-02  0.6344E-02  0.3595E-02  0.2763E-01  0.1252E-01  0.8188E-01  0.6816E-02  0.5530E-01  0.4936E-02  0.6291E-01  0.4319E-02  0.7559E-02  0.2133E-02  0.2571E-01  0.3536E-02
      1.955  0.1031E+00  0.5340E-01  0.6682E-02  0.4428E-02  0.7291E-02  0.3971E-02  0.3223E-01  0.1427E-01  0.8717E-01  0.9175E-02  0.5780E-01  0.6440E-02  0.1108E+00  0.6005E-02  0.1070E-01  0.2620E-02  0.6165E-01  0.4589E-02
      2.143  0.1043E+00  0.5790E-01  0.7114E-02  0.4816E-02  0.8059E-02  0.4371E-02  0.4162E-01  0.1636E-01  0.9987E-01  0.1312E-01  0.6844E-01  0.8488E-02  0.1545E+00  0.8661E-02  0.1509E-01  0.3127E-02  0.9012E-01  0.5837E-02
      2.332  0.1106E+00  0.6302E-01  0.9830E-02  0.5209E-02  0.1099E-01  0.4801E-02  0.6728E-01  0.1868E-01  0.1344E+00  0.1829E-01  0.8528E-01  0.1106E-01  0.3195E+00  0.1216E-01  0.3132E-01  0.3698E-02  0.1458E+00  0.7303E-02
      2.520  0.7733E-01  0.6874E-01  0.9141E-02  0.5608E-02  0.9192E-02  0.5263E-02  0.5419E-01  0.2124E-01  0.1108E+00  0.2465E-01  0.8413E-01  0.1416E-01  0.2418E+00  0.1649E-01  0.4011E-01  0.4334E-02  0.1401E+00  0.8986E-02
      2.709  0.4360E-01  0.7507E-01  0.7423E-02  0.6013E-02  0.6440E-02  0.5755E-02  0.3124E-01  0.2403E-01  0.7839E-01  0.3223E-01  0.9271E-01  0.1778E-01  0.1179E+00  0.2166E-01  0.4713E-01  0.5035E-02  0.1043E+00  0.1089E-01
      2.897  0.2334E-01  0.9883E-01  0.6617E-02  0.6982E-02  0.4239E-02  0.8024E-02  0.1933E-01  0.3242E-01  0.4962E-01  0.6952E-01  0.8142E-01  0.4886E-01  0.6494E-01  0.5044E-01  0.3953E-01  0.7662E-02  0.9083E-01  0.2289E-01
      3.085  0.6796E-02  0.9588E-01  0.6165E-02  0.6796E-02  0.2283E-02  0.9010E-02  0.1270E-01  0.3812E-01  0.1572E-01  0.7653E-01  0.4993E-01  0.5721E-01  0.4191E-01  0.6219E-01  0.1584E-01  0.1140E-01  0.8601E-01  0.2866E-01
      3.274  0.2286E-02  0.8959E-01  0.1159E-01  0.6726E-02  0.4975E-02  0.9043E-02  0.1165E-01  0.4353E-01  0.1995E-01  0.8197E-01  0.3573E-01  0.6202E-01  0.7134E-01  0.1032E+00  0.3718E-01  0.1511E-01  0.1118E+00  0.6566E-01
      3.462  0.1845E-02  0.7839E-01  0.3531E-01  0.7031E-02  0.2516E-01  0.8679E-02  0.2074E-01  0.4792E-01  0.2623E+00  0.8049E-01  0.1860E+00  0.6103E-01  0.1313E+00  0.1370E+00  0.4800E+00  0.1981E-01  0.1649E+00  0.9505E-01
      3.650  0.3200E-02  0.7666E-01  0.2734E-01  0.9278E-02  0.1592E-01  0.9560E-02  0.1739E-01  0.6725E-01  0.1525E+00  0.9208E-01  0.2204E+00  0.6247E-01  0.1293E+00  0.2403E+00  0.4330E+00  0.2742E-01  0.1665E+00  0.1411E+00
      3.839  0.5182E-02  0.5030E-01  0.1596E-01  0.9674E-02  0.1019E-01  0.8994E-02  0.8568E-02  0.4162E-01  0.1072E+00  0.7335E-01  0.1068E+00  0.7450E-01  0.9249E-01  0.1662E+00  0.2328E+00  0.3281E-01  0.8586E-01  0.9431E-01
      4.027  0.8786E-02  0.3071E-01  0.2034E-01  0.8283E-02  0.2160E-01  0.6374E-02  0.1063E-01  0.2427E-01  0.1393E+00  0.4840E-01  0.9576E-01  0.7117E-01  0.5873E-01  0.7902E-01  0.1683E+00  0.3346E-01  0.5040E-01  0.6556E-01
      4.216  0.1309E-01  0.1420E-01  0.3068E-01  0.7447E-02  0.3355E-01  0.3857E-02  0.1960E-01  0.1608E-01  0.1675E+00  0.2139E-01  0.1449E+00  0.5341E-01  0.5151E-01  0.4517E-01  0.1602E+00  0.2067E-01  0.7031E-01  0.6278E-01
      4.404  0.2049E-01  0.5856E-02  0.4504E-01  0.8522E-02  0.4113E-01  0.3201E-02  0.3546E-01  0.1434E-01  0.2521E+00  0.8413E-02  0.2726E+00  0.3870E-01  0.6555E-01  0.4137E-01  0.2248E+00  0.9209E-02  0.1127E+00  0.6791E-01
      4.592  0.2986E-01  0.4326E-03  0.6652E-01  0.2522E-01  0.4601E-01  0.1401E-01  0.5757E-01  0.1276E-01  0.3759E+00  0.9144E-01  0.3525E+00  0.2288E-01  0.8026E-01  0.6632E-01  0.3499E+00  0.1256E+00  0.1816E+00  0.1055E+00
      4.781  0.1477E-01  0.1384E-02  0.3505E-01  0.4181E-01  0.2664E-01  0.2760E-01  0.2332E-01  0.2118E-01  0.1239E+00  0.2196E+00  0.1387E+00  0.1346E+00  0.2869E-01  0.1149E+00  0.1768E+00  0.3988E+00  0.8378E-01  0.1349E+00
      4.969  0.8660E-02  0.2788E-02  0.2404E-01  0.3748E-01  0.1748E-01  0.2248E-01  0.1430E-01  0.1974E-01  0.5261E-01  0.1705E+00  0.7976E-01  0.2066E+00  0.1482E-01  0.1153E+00  0.8423E-01  0.4174E+00  0.5780E-01  0.1359E+00
      5.158  0.6032E-02  0.3138E-02  0.1912E-01  0.2850E-01  0.1380E-01  0.2180E-01  0.1089E-01  0.1227E-01  0.4524E-01  0.1432E+00  0.7368E-01  0.1229E+00  0.1313E-01  0.8293E-01  0.7610E-01  0.2420E+00  0.4736E-01  0.7915E-01