    1    1    1    2
  0.9841500E+01  0.2338269E-09  0.2338269E-09  0.2338269E-09  0.5000000E-15
  1.000000000000000E-004
  CAR 
 Fe BCC                                  
      8     26     12
 
  0.6250000E-01  0.6250000E-01  0.6250000E-01  0.1562500E-01
    1       -1.004880     -0.632291   1.000000   1.000000
    2        4.481247      5.960853   1.000000   1.000000
    3        4.481247      5.960853   1.000000   1.000000
    4        5.505897      7.058068   1.000000   0.877159
    5        6.345574      8.351603   1.000000  -0.001076
    6        6.345574      8.351603   1.002586   0.000000
    7       30.236124     30.706722   0.000000   0.000000
    8       30.236124     30.706722   0.000000   0.000000
    9       34.558858     34.727572   0.000000   0.000000
   10       35.711237     36.479115   0.000000   0.000000
   11       40.903475     41.347539   0.000000   0.000000
   12       40.903475     41.347539   0.000000   0.000000
 
  0.1875000E+00  0.6250000E-01  0.6250000E-01  0.4687500E-01
    1        0.728807      1.177272   1.000000   1.000000
    2        3.953494      5.371704   1.000000   1.000000
    3        4.221493      5.608489   1.000000   1.000000
    4        6.255953      8.197422   1.000000  -0.066495
    5        6.512392      8.379543   1.002278  -0.000732
    6        6.789038      8.547574   0.830604   0.000000
    7       24.861022     25.585596   0.000000   0.000000
    8       27.858283     28.389584   0.000000   0.000000
    9       31.363139     32.066788   0.000000   0.000000
   10       35.232471     35.540687   0.000000   0.000000
   11       40.708962     41.371617   0.000000   0.000000
   12       41.502717     41.938837   0.000000   0.000000
 
  0.3125000E+00  0.6250000E-01  0.6250000E-01  0.4687500E-01
    1        1.821772      2.709927   1.000000   1.000000
    2        3.506389      4.872373   1.000000   1.000000
    3        5.147897      6.118005   1.000000   1.000000
    4        6.434356      8.352607   1.000000  -0.003666
    5        6.648447      8.718538   1.028582   0.000000
    6        8.486032     10.007974  -0.022779   0.000000
    7       19.257045     20.196589   0.000000   0.000000
    8       25.990314     26.489318   0.000000   0.000000
    9       28.675079     29.317801   0.000000   0.000000
   10       35.004840     35.490584   0.000000   0.000000
   11       40.004752     40.668228   0.000000   0.000000
   12       44.952709     45.351361   0.000000   0.000000
 
  0.4375000E+00  0.6250000E-01  0.6250000E-01  0.2343750E-01
    1        1.819591      2.903073   1.000000   1.000000
    2        3.335862      4.682539   1.000000   1.000000
    3        6.321463      7.215802   1.000000   1.000000
    4        6.523312      8.449439   1.000000   0.000000
    5        6.705575      8.792774   1.040381   0.000000
    6        9.869873     11.111315  -0.003624   0.000000
    7       16.128101     17.285019   0.000000   0.000000
    8       25.283923     25.758472   0.000000   0.000000
    9       27.664272     28.270177   0.000000   0.000000
   10       34.857100     35.399601   0.000000   0.000000
   11       39.969823     40.659027   0.000000   0.000000
   12       44.571008     44.889736   0.000000   0.000000
 
 -0.6250000E-01  0.6250000E-01  0.6250000E-01  0.1171875E-01
    1       -1.692872     -1.328268   1.000000   1.000000
    2        4.745388      6.252122   1.000000   1.000000
    3        4.745388      6.252122   1.000000   1.000000
    4        4.858670      6.380854   1.000000   1.026650
    5        6.245148      8.241424   1.000000  -0.002585
    6        6.512235      8.553696   1.000000   0.000000
    7       31.927555     32.233902   0.000000   0.000000
    8       33.407865     33.665975   0.000000   0.000000
    9       33.407865     33.665975   0.000000   0.000000
   10       37.616425     38.123175   0.000000   0.000000
   11       40.503687     41.246127   0.000000   0.000000
   12       40.503687     41.246127   0.000000   0.000000
 
  0.1875000E+00  0.1875000E+00  0.6250000E-01  0.4687500E-01
    1        2.296660      2.974489   1.000000   1.000000
    2        3.596159      4.940992   1.000000   1.000000
    3        3.856592      5.116374   1.000000   1.000000
    4        6.360975      8.307600   1.000000  -0.004628
    5        6.685327      8.728361   1.002054   0.000000
    6        8.750933     10.261055  -0.040496   0.000000
    7       22.149533     22.959602   0.000000   0.000000
    8       23.206876     23.898005   0.000000   0.000000
    9       27.574827     28.205009   0.000000   0.000000
   10       37.353745     37.652673   0.000000   0.000000
   11       41.849810     42.340863   0.000000   0.000000
   12       44.490026     44.993500   0.000000   0.000000
 
  0.3125000E+00  0.1875000E+00  0.6250000E-01  0.9375000E-01
    1        2.581383      3.684824   1.000000   1.000000
    2        3.385877      4.684181   1.000000   1.000000
    3        4.635069      5.703520   1.000000   1.000000
    4        6.543571      8.495495   1.000000   0.000000
    5        6.799942      8.827996   1.010969   0.000000
    6       11.432363     12.654798  -0.002109   0.000000
    7       17.433212     18.415476   0.000000   0.000000
    8       21.451770     22.164475   0.000000   0.000000
    9       26.071841     26.677240   0.000000   0.000000
   10       37.936005     38.324968   0.000000   0.000000
   11       42.695898     43.081763   0.000000   0.000000
   12       45.353902     45.933370   0.000000   0.000000
 
 -0.1875000E+00  0.1875000E+00  0.6250000E-01  0.4687500E-01
    1       -0.371796      0.017939   1.000000   1.000000
    2        4.397734      5.863286   1.000000   1.000000
    3        4.643489      6.113236   1.000000   1.000000
    4        5.638169      7.206486   1.000000   0.740585
    5        5.917971      7.825531   1.000000   0.000696
    6        6.644407      8.694274   1.003324   0.000000
    7       27.753497     28.370207   0.000000   0.000000
    8       31.104342     31.500026   0.000000   0.000000
    9       32.400024     32.922216   0.000000   0.000000
   10       36.971956     37.469870   0.000000   0.000000
   11       37.407686     38.053696   0.000000   0.000000
   12       38.995098     39.551252   0.000000   0.000000
 
  0.3125000E+00  0.3125000E+00  0.6250000E-01  0.1562500E-01
    1        2.945150      4.169056   1.000000   1.000000
    2        3.845408      5.026597   1.000000   1.000000
    3        3.845408      5.026597   1.000000   1.000000
    4        6.724059      8.707096   1.000000   0.000000
    5        6.724059      8.707096   1.012057   0.000000
    6       15.230994     16.247050   0.000000   0.000000
    7       15.230994     16.247050   0.000000   0.000000
    8       18.325697     19.143412   0.000000   0.000000
    9       25.553058     26.179325   0.000000   0.000000
   10       40.542399     40.899251   0.000000   0.000000
   11       40.542399     40.899251   0.000000   0.000000
   12       49.011553     49.685220   0.000000   0.000000
 
 -0.3125000E+00  0.3125000E+00  0.6250000E-01  0.4687500E-01
    1        1.325841      1.957083   1.000000   1.000000
    2        3.886886      5.297540   1.000000   1.000000
    3        4.710609      5.947856   1.000000   1.000000
    4        6.159133      7.973615   1.000000  -0.031073
    5        6.863188      8.586185   1.004872  -0.001689
    6        6.926375      8.868577   0.619473   0.000000
    7       21.925744     22.774766   0.000000   0.000000
    8       28.476293     28.863015   0.000000   0.000000
    9       30.527501     31.195722   0.000000   0.000000
   10       35.171421     35.782360   0.000000   0.000000
   11       37.405624     38.022505   0.000000   0.000000
   12       40.269631     40.742362   0.000000   0.000000
 
 -0.1875000E+00  0.3125000E+00  0.6250000E-01  0.4687500E-01
    1        1.188980      1.687890   1.000000   1.000000
    2        4.121981      5.584146   1.000000   1.000000
    3        4.377038      5.772021   1.000000   1.000000
    4        5.736434      7.535182   1.000000   0.201902
    5        6.604174      8.267557   1.005317  -0.002290
    6        7.084699      9.030628   0.644573   0.000000
    7       24.868985     25.633802   0.000000   0.000000
    8       26.167398     26.801455   0.000000   0.000000
    9       32.681243     33.173809   0.000000   0.000000
   10       33.507194     34.063185   0.000000   0.000000
   11       37.421662     37.969551   0.000000   0.000000
   12       42.365086     42.863947   0.000000   0.000000
 
 -0.4375000E+00  0.4375000E+00  0.6250000E-01  0.4687500E-01
    1        1.686106      2.729200   1.000000   1.000000
    2        3.543559      4.919992   1.000000   1.000000
    3        5.704087      6.933544   1.000000   1.000000
    4        6.395499      8.251201   1.000000  -0.006413
    5        7.973572      9.510761   0.139980   0.000000
    6        8.151774      9.724454   0.001131   0.000000
    7       17.040972     18.132563   0.000000   0.000000
    8       26.937825     27.292553   0.000000   0.000000
    9       28.795841     29.423219   0.000000   0.000000
   10       34.402368     35.062485   0.000000   0.000000
   11       37.884064     38.577286   0.000000   0.000000
   12       41.723576     42.116784   0.000000   0.000000
 
 -0.3125000E+00  0.4375000E+00  0.6250000E-01  0.9375000E-01
    1        2.225765      3.157497   1.000000   1.000000
    2        3.734202      5.107398   1.000000   1.000000
    3        4.462772      5.721722   1.000000   1.000095
    4        6.117579      7.894575   1.000000  -0.017008
    5        7.122165      8.975618   0.959449  -0.000171
    6        9.038092     10.512485  -0.038823   0.000000
    7       19.625155     20.545025   0.000000   0.000000
    8       23.692788     24.376967   0.000000   0.000000
    9       30.596491     31.085754   0.000000   0.000000
   10       34.047525     34.623977   0.000000   0.000000
   11       37.934510     38.454552   0.000000   0.000000
   12       43.105390     43.685569   0.000000   0.000000
 
 -0.4375000E+00 -0.4375000E+00  0.6250000E-01  0.4687500E-01
    1        2.207369      3.352775   1.000000   1.000000
    2        3.715380      5.082647   1.000000   1.000000
    3        4.686132      5.955002   1.000000   1.000133
    4        6.264562      8.080603   1.000000  -0.001914
    5        7.532650      9.307242   0.495670   0.000000
    6       11.103149     12.246452  -0.001209   0.000000
    7       16.184817     17.304375   0.000000   0.000000
    8       22.921556     23.594509   0.000000   0.000000
    9       29.636072     30.100814   0.000000   0.000000
   10       34.546577     35.192944   0.000000   0.000000
   11       38.625341     39.032989   0.000000   0.000000
   12       42.425028     43.059040   0.000000   0.000000
 
 -0.3125000E+00 -0.4375000E+00  0.6250000E-01  0.4687500E-01
    1        3.053089      4.228833   1.000000   1.000000
    2        3.364458      4.685854   1.000000   1.000000
    3        4.038887      5.340108   1.000000   1.000437
    4        6.494771      8.275671   1.000027  -0.002838
    5        7.076913      8.888192   1.014807   0.000000
    6       12.610917     13.777752  -0.000232   0.000000
    7       17.392577     18.390770   0.000000   0.000000
    8       19.118182     19.896321   0.000000   0.000000
    9       31.257363     31.810044   0.000000   0.000000
   10       34.164108     34.652056   0.000000   0.000000
   11       36.608278     37.091699   0.000000   0.000000
   12       45.372799     46.148740   0.000000   0.000000
 
  0.1875000E+00  0.1875000E+00  0.1875000E+00  0.1562500E-01
    1        3.365991      4.481369   1.000000   1.000000
    2        3.365991      4.629781   1.000000   1.000000
    3        3.623434      4.629781   1.000000   1.000000
    4        6.666845      8.720431   1.000000   0.000000
    5        6.666845      8.720431   1.000000   0.000000
    6       11.489724     12.767623  -0.002959   0.000000
    7       20.378162     21.195341   0.000000   0.000000
    8       20.378162     21.195341   0.000000   0.000000
    9       22.403001     23.026225   0.000000   0.000000
   10       42.258603     42.432998   0.000000   0.000000
   11       45.638991     46.056813   0.000000   0.000000
   12       45.638991     46.056813   0.000000   0.000000
 
  0.3125000E+00  0.1875000E+00  0.1875000E+00  0.2343750E-01
    1        3.235649      4.388204   1.000000   1.000000
    2        3.317716      4.551056   1.000000   1.000000
    3        4.136957      5.238819   1.000000   1.000000
    4        6.710754      8.765069   1.000000   0.000000
    5        6.739891      8.833526   1.000178   0.000000
    6       14.438885     15.449297   0.000000   0.000000
    7       16.632731     17.608094   0.000000   0.000000
    8       19.764002     20.579451   0.000000   0.000000
    9       21.305279     21.935771   0.000000   0.000000
   10       43.585065     43.852273   0.000000   0.000000
   11       47.373153     47.711402   0.000000   0.000000
   12       48.221078     48.738048   0.000000   0.000000
 
 -0.1875000E+00  0.1875000E+00  0.1875000E+00  0.1171875E-01
    1        0.766968      1.210651   1.000000   1.000000
    2        4.885513      6.397185   1.000000   1.000000
    3        4.924697      6.397185   1.000000   1.000000
    4        4.924697      6.659558   1.000000   1.170540
    5        5.652007      7.227906   1.000000   0.064176
    6        7.108194      9.125097   0.781460   0.000000
    7       27.612756     28.266555   0.000000   0.000000
    8       29.348662     30.021984   0.000000   0.000000
    9       29.348662     30.021984   0.000000   0.000000
   10       31.324363     31.779687   0.000000   0.000000
   11       41.402606     41.861308   0.000000   0.000000
   12       41.402606     41.861308   0.000000   0.000000
 
 -0.3125000E+00  0.3125000E+00  0.1875000E+00  0.4687500E-01
    1        2.123489      2.851002   1.000000   1.000000
    2        3.888824      5.412244   1.000000   1.000000
    3        4.742625      6.193676   1.000000   1.008053
    4        5.602418      7.184844   1.000000   0.648341
    5        6.773941      8.420835   1.041980  -0.001974
    6        8.074912      9.792719   0.017206   0.000000
    7       22.815938     23.642187   0.000000   0.000000
    8       26.594644     27.294294   0.000000   0.000000
    9       27.391349     28.016219   0.000000   0.000000
   10       31.892878     32.425101   0.000000   0.000000
   11       40.481725     41.058905   0.000000   0.000000
   12       42.458969     42.998753   0.000000   0.000000
 
 -0.4375000E+00  0.4375000E+00  0.1875000E+00  0.4687500E-01
    1        2.330982      3.505492   1.000000   1.000000
    2        3.811299      5.145202   1.000000   1.000000
    3        4.488555      5.915298   1.000000   1.018307
    4        5.898890      7.567713   1.000097   0.014844
    5        7.867762      9.609321   0.021583   0.000000
    6       10.703406     11.880138  -0.008035   0.000000
    7       17.497838     18.500557   0.000000   0.000000
    8       24.796903     25.453350   0.000000   0.000000
    9       26.478419     27.112507   0.000000   0.000000
   10       34.366376     34.872735   0.000000   0.000000
   11       39.480099     40.080096   0.000000   0.000000
   12       40.520350     41.171311   0.000000   0.000000
 
 -0.3125000E+00  0.4375000E+00  0.1875000E+00  0.4687500E-01
    1        2.753583      3.833900   1.000000   1.000000
    2        3.092011      4.547935   1.000000   1.000000
    3        4.845282      6.294171   1.000007   1.031952
    4        6.100595      7.694826   1.000830  -0.003505
    5        7.326344      9.037957   0.663708  -0.000186
    6       10.665977     11.922680  -0.009773   0.000000
    7       20.464886     21.373433   0.000000   0.000000
    8       21.260984     21.976755   0.000000   0.000000
    9       28.952862     29.632841   0.000000   0.000000
   10       30.795622     31.329545   0.000000   0.000000
   11       39.209636     39.811134   0.000000   0.000000
   12       42.880359     43.597866   0.000000   0.000000
 
 -0.4375000E+00 -0.4375000E+00  0.1875000E+00  0.4687500E-01
    1        2.645505      3.979928   1.000000   1.000000
    2        3.121147      4.462946   1.000000   1.000000
    3        4.596353      5.993871   1.000017   1.052799
    4        6.503238      8.138787   1.001887  -0.002174
    5        7.618000      9.339785   0.098945   0.000000
    6       13.849792     14.855593   0.000000   0.000000
    7       16.522857     17.510854   0.000000   0.000000
    8       20.123511     20.873259   0.000000   0.000000
    9       28.995938     29.639853   0.000000   0.000000
   10       32.252609     32.814863   0.000000   0.000000
   11       36.906355     37.547405   0.000000   0.000000
   12       41.770202     42.481200   0.000000   0.000000
 
 -0.3125000E+00  0.3125000E+00  0.3125000E+00  0.1171875E-01
    1        2.501696      3.556200   1.000000   1.000000
    2        3.030998      4.554845   1.000000   1.000000
    3        5.896899      7.402824   1.000022   0.827077
    4        5.896899      7.402824   1.002514   0.279098
    5        6.819523      8.481177   1.108838  -0.000567
    6        9.968091     11.254493  -0.013599   0.000000
    7       23.342461     24.024632   0.000000   0.000000
    8       23.342461     24.024632   0.000000   0.000000
    9       25.443130     26.392117   0.000000   0.000000
   10       27.971145     28.561662   0.000000   0.000000
   11       41.249859     41.978933   0.000000   0.000000
   12       45.556229     46.123405   0.000000   0.000000
 
 -0.4375000E+00  0.4375000E+00  0.3125000E+00  0.4687500E-01
    1        2.308853      3.646682   1.000000   1.000000
    2        2.474522      3.856487   1.000000   1.000000
    3        6.074517      7.609822   1.007223   0.518509
    4        6.437767      7.989821   1.042686  -0.014099
    5        7.721776      9.451051   0.027360   0.000000
    6       13.315921     14.252839   0.000000   0.000000
    7       18.577949     19.371512   0.000000   0.000000
    8       21.266123     21.880618   0.000000   0.000000
    9       25.759773     26.659354   0.000000   0.000000
   10       28.836612     29.523089   0.000000   0.000000
   11       36.550217     37.310428   0.000000   0.000000
   12       45.007563     45.548988   0.000000   0.000000
 
 -0.4375000E+00 -0.4375000E+00  0.3125000E+00  0.1562500E-01
    1        2.126722      3.502591   1.000000   1.000000
    2        2.126722      3.502591   1.000000   1.000000
    3        6.208346      7.730432   1.021925   0.293409
    4        7.514693      9.205227   0.798096  -0.000024
    5        7.514693      9.205227   0.030003   0.000000
    6       16.953035     17.726628   0.000000   0.000000
    7       16.953035     17.726628   0.000000   0.000000
    8       18.324214     18.970495   0.000000   0.000000
    9       27.240541     28.061955   0.000000   0.000000
   10       27.240541     28.061955   0.000000   0.000000
   11       34.128101     34.903704   0.000000   0.000000
   12       45.644257     46.178463   0.000000   0.000000
 
 -0.4375000E+00  0.4375000E+00  0.4375000E+00  0.1171875E-01
    1        1.789260      3.156365   1.000000   1.000000
    2        1.798994      3.176584   1.000000   1.000000
    3        7.460175      9.139064   0.863669  -0.052099
    4        7.460175      9.139064   0.617142  -0.000045
    5        7.677531      9.407481   0.006732   0.000000
    6       16.240133     16.880599   0.000000   0.000000
    7       18.920143     19.423057   0.000000   0.000000
    8       18.920143     19.423057   0.000000   0.000000
    9       24.685280     25.790088   0.000000   0.000000
   10       25.931419     26.868992   0.000000   0.000000
   11       32.555086     33.352108   0.000000   0.000000
   12       48.679444     49.121933   0.000000   0.000000
