 running on    4 total cores
 distrk:  each k-point on    4 cores,    1 groups
 distr:  one band on    1 cores,    4 groups
 using from now: INCAR     
 vasp.5.4.1 24Jun15 (build Jul 19 2016 16:50:41) complex                        
  
 POSCAR found type information on POSCAR  Fe
 POSCAR found :  1 types and       1 ions
 LDA part: xc-table for Ceperly-Alder, standard interpolation
 POSCAR, INCAR and KPOINTS ok, starting setup
 WARNING: small aliasing (wrap around) errors must be expected
 FFT: planning ...
 WAVECAR not read
 entering main loop
       N       E                     dE             d eps       ncg     rms          rms(c)
DAV:   1     0.167326746653E+02    0.16733E+02   -0.35290E+03  1360   0.778E+02
DAV:   2    -0.904569625041E+01   -0.25778E+02   -0.23835E+02  1300   0.124E+02
DAV:   3    -0.965939430554E+01   -0.61370E+00   -0.60843E+00  1456   0.219E+01
DAV:   4    -0.966162730643E+01   -0.22330E-02   -0.22297E-02  1388   0.114E+00
DAV:   5    -0.966164098239E+01   -0.13676E-04   -0.13678E-04  1440   0.952E-02    0.157E+01
DAV:   6    -0.924878063877E+01    0.41286E+00   -0.74439E+00  1404   0.395E+01    0.368E+00
DAV:   7    -0.922888315499E+01    0.19897E-01   -0.18329E-01  1468   0.615E+00    0.235E+00
DAV:   8    -0.921495796097E+01    0.13925E-01   -0.55197E-03  1584   0.493E-01    0.120E+00
DAV:   9    -0.920640824107E+01    0.85497E-02   -0.51003E-03  1636   0.438E-01    0.176E-01
DAV:  10    -0.920647557359E+01   -0.67333E-04   -0.10252E-04  1444   0.141E-01    0.803E-02
DAV:  11    -0.920670197072E+01   -0.22640E-03   -0.83987E-05  1648   0.109E-01    0.334E-02
DAV:  12    -0.920674096399E+01   -0.38993E-04   -0.28151E-06  1128   0.125E-02    0.266E-02
DAV:  13    -0.920671324616E+01    0.27718E-04   -0.12166E-06   704   0.125E-02    0.880E-03
DAV:  14    -0.920669997421E+01    0.13272E-04   -0.31811E-07   668   0.402E-03    0.906E-04
DAV:  15    -0.920669796385E+01    0.20104E-05   -0.19285E-08   672   0.129E-03    0.389E-04
DAV:  16    -0.920669782774E+01    0.13611E-06   -0.40209E-09   660   0.378E-04
   1 F= -.92066978E+01 E0= -.92066978E+01  d E =0.000000E+00  mag=     1.8647
 writing wavefunctions
