PROCAR lm decomposed
# of k-points:   26         # of bands:  12         # of ions:   1

 k-point    1 :    0.06250000 0.06250000 0.06250000     weight = 0.01562500

band   1 # energy   -1.00487956 # occ.  1.00000000
 
ion      s     py     pz     px    dxy    dyz    dz2    dxz    dx2    tot
  1  0.780  0.027  0.027  0.027  0.003  0.003  0.000  0.003  0.000  0.871
 
band   2 # energy    4.48124747 # occ.  1.00000000
 
ion      s     py     pz     px    dxy    dyz    dz2    dxz    dx2    tot
  1  0.000  0.000  0.003  0.001  0.592  0.308  0.022  0.063  0.002  0.991
 
band   3 # energy    4.48124747 # occ.  1.00000000
 
ion      s     py     pz     px    dxy    dyz    dz2    dxz    dx2    tot
  1  0.000  0.003  0.000  0.001  0.050  0.334  0.002  0.579  0.022  0.991
 
band   4 # energy    5.50589669 # occ.  1.00000000
 
ion      s     py     pz     px    dxy    dyz    dz2    dxz    dx2    tot
  1  0.002  0.005  0.005  0.005  0.324  0.324  0.000  0.324  0.000  0.990
 
band   5 # energy    6.34557443 # occ.  1.00000000
 
ion      s     py     pz     px    dxy    dyz    dz2    dxz    dx2    tot
  1  0.000  0.000  0.000  0.000  0.011  0.002  0.589  0.013  0.355  0.971
 
band   6 # energy    6.34557443 # occ.  1.00258627
 
ion      s     py     pz     px    dxy    dyz    dz2    dxz    dx2    tot
  1  0.000  0.000  0.000  0.000  0.007  0.016  0.355  0.004  0.589  0.971
 
band   7 # energy   30.23612411 # occ.  0.00000000
 
ion      s     py     pz     px    dxy    dyz    dz2    dxz    dx2    tot
  1  0.000  0.056  0.011  0.025  0.037  0.085  0.044  0.190  0.201  0.647
 
band   8 # energy   30.23612411 # occ.  0.00000000
 
ion      s     py     pz     px    dxy    dyz    dz2    dxz    dx2    tot
  1  0.000  0.005  0.050  0.036  0.171  0.123  0.201  0.018  0.044  0.647
 
band   9 # energy   34.55885761 # occ.  0.00000000
 
ion      s     py     pz     px    dxy    dyz    dz2    dxz    dx2    tot
  1  0.000  0.000  0.000  0.000  0.000  0.000  0.000  0.000  0.000  0.000
 
band  10 # energy   35.71123731 # occ.  0.00000000
 
ion      s     py     pz     px    dxy    dyz    dz2    dxz    dx2    tot
  1  0.074  0.164  0.164  0.164  0.214  0.214  0.000  0.214  0.000  1.208
 
band  11 # energy   40.90347469 # occ.  0.00000000
 
ion      s     py     pz     px    dxy    dyz    dz2    dxz    dx2    tot
  1  0.000  0.018  0.108  0.091  0.099  0.083  0.106  0.016  0.036  0.557
 
band  12 # energy   40.90347469 # occ.  0.00000000
 
ion      s     py     pz     px    dxy    dyz    dz2    dxz    dx2    tot
  1  0.000  0.127  0.037  0.054  0.034  0.049  0.036  0.116  0.106  0.557
 

 k-point    2 :    0.18750000 0.06250000 0.06250000     weight = 0.04687500

band   1 # energy    0.72880693 # occ.  1.00000000
 
ion      s     py     pz     px    dxy    dyz    dz2    dxz    dx2    tot
  1  0.588  0.079  0.079  0.024  0.007  0.080  0.004  0.007  0.013  0.882
 
band   2 # energy    3.95349439 # occ.  1.00000000
 
ion      s     py     pz     px    dxy    dyz    dz2    dxz    dx2    tot
  1  0.000  0.003  0.003  0.000  0.477  0.000  0.018  0.477  0.006  0.987
 
band   3 # energy    4.22149294 # occ.  1.00000000
 
ion      s     py     pz     px    dxy    dyz    dz2    dxz    dx2    tot
  1  0.017  0.027  0.027  0.003  0.094  0.555  0.037  0.094  0.111  0.964
 
band   4 # energy    6.25595326 # occ.  1.00000000
 
ion      s     py     pz     px    dxy    dyz    dz2    dxz    dx2    tot
  1  0.002  0.000  0.000  0.000  0.016  0.149  0.198  0.016  0.594  0.975
 
band   5 # energy    6.51239174 # occ.  1.00227791
 
ion      s     py     pz     px    dxy    dyz    dz2    dxz    dx2    tot
  1  0.000  0.000  0.000  0.000  0.014  0.000  0.712  0.014  0.237  0.978
 
band   6 # energy    6.78903762 # occ.  0.83060357
 
ion      s     py     pz     px    dxy    dyz    dz2    dxz    dx2    tot
  1  0.015  0.016  0.016  0.015  0.370  0.178  0.000  0.370  0.000  0.981
 
band   7 # energy   24.86102174 # occ.  0.00000000
 
ion      s     py     pz     px    dxy    dyz    dz2    dxz    dx2    tot
  1  0.052  0.109  0.109  0.029  0.012  0.381  0.051  0.012  0.153  0.909
 
band   8 # energy   27.85828290 # occ.  0.00000000
 
ion      s     py     pz     px    dxy    dyz    dz2    dxz    dx2    tot
  1  0.000  0.100  0.100  0.000  0.183  0.000  0.107  0.183  0.036  0.707
 
band   9 # energy   31.36313941 # occ.  0.00000000
 
ion      s     py     pz     px    dxy    dyz    dz2    dxz    dx2    tot
  1  0.133  0.066  0.066  0.381  0.147  0.010  0.011  0.147  0.034  0.993
 
band  10 # energy   35.23247086 # occ.  0.00000000
 
ion      s     py     pz     px    dxy    dyz    dz2    dxz    dx2    tot
  1  0.000  0.001  0.001  0.000  0.205  0.000  0.019  0.205  0.006  0.436
 
band  11 # energy   40.70896225 # occ.  0.00000000
 
ion      s     py     pz     px    dxy    dyz    dz2    dxz    dx2    tot
  1  0.033  0.053  0.053  0.145  0.095  0.176  0.131  0.095  0.393  1.174
 
band  12 # energy   41.50271725 # occ.  0.00000000
 
ion      s     py     pz     px    dxy    dyz    dz2    dxz    dx2    tot
  1  0.000  0.092  0.092  0.000  0.202  0.000  0.001  0.202  0.000  0.588
 

 k-point    3 :    0.31250000 0.06250000 0.06250000     weight = 0.04687500

band   1 # energy    1.82177240 # occ.  1.00000000
 
ion      s     py     pz     px    dxy    dyz    dz2    dxz    dx2    tot
  1  0.241  0.027  0.027  0.022  0.001  0.427  0.045  0.001  0.135  0.927
 
band   2 # energy    3.50638888 # occ.  1.00000000
 
ion      s     py     pz     px    dxy    dyz    dz2    dxz    dx2    tot
  1  0.000  0.005  0.005  0.000  0.485  0.000  0.006  0.485  0.002  0.987
 
band   3 # energy    5.14789734 # occ.  1.00000000
 
ion      s     py     pz     px    dxy    dyz    dz2    dxz    dx2    tot
  1  0.094  0.165  0.165  0.000  0.147  0.094  0.026  0.147  0.078  0.917
 
band   4 # energy    6.43435556 # occ.  1.00000000
 
ion      s     py     pz     px    dxy    dyz    dz2    dxz    dx2    tot
  1  0.004  0.002  0.002  0.001  0.014  0.286  0.166  0.014  0.497  0.985
 
band   5 # energy    6.64844680 # occ.  1.02858228
 
ion      s     py     pz     px    dxy    dyz    dz2    dxz    dx2    tot
  1  0.000  0.000  0.000  0.000  0.005  0.000  0.731  0.005  0.244  0.984
 
band   6 # energy    8.48603184 # occ. -0.02277857
 
ion      s     py     pz     px    dxy    dyz    dz2    dxz    dx2    tot
  1  0.044  0.069  0.069  0.012  0.333  0.101  0.001  0.333  0.002  0.965
 
band   7 # energy   19.25704546 # occ.  0.00000000
 
ion      s     py     pz     px    dxy    dyz    dz2    dxz    dx2    tot
  1  0.224  0.106  0.106  0.017  0.005  0.383  0.031  0.005  0.093  0.971
 
band   8 # energy   25.99031383 # occ.  0.00000000
 
ion      s     py     pz     px    dxy    dyz    dz2    dxz    dx2    tot
  1  0.000  0.133  0.133  0.000  0.163  0.000  0.030  0.163  0.010  0.632
 
band   9 # energy   28.67507894 # occ.  0.00000000
 
ion      s     py     pz     px    dxy    dyz    dz2    dxz    dx2    tot
  1  0.134  0.012  0.012  0.550  0.050  0.010  0.016  0.050  0.047  0.880
 
band  10 # energy   35.00484031 # occ.  0.00000000
 
ion      s     py     pz     px    dxy    dyz    dz2    dxz    dx2    tot
  1  0.000  0.003  0.003  0.000  0.475  0.000  0.007  0.475  0.002  0.966
 
band  11 # energy   40.00475225 # occ.  0.00000000
 
ion      s     py     pz     px    dxy    dyz    dz2    dxz    dx2    tot
  1  0.105  0.024  0.024  0.122  0.024  0.009  0.197  0.024  0.592  1.123
 
band  12 # energy   44.95270916 # occ.  0.00000000
 
ion      s     py     pz     px    dxy    dyz    dz2    dxz    dx2    tot
  1  0.060  0.009  0.010  0.011  0.005  0.322  0.002  0.006  0.007  0.432
 

 k-point    4 :    0.43750000 0.06250000 0.06250000     weight = 0.02343750

band   1 # energy    1.81959061 # occ.  1.00000000
 
ion      s     py     pz     px    dxy    dyz    dz2    dxz    dx2    tot
  1  0.143  0.000  0.000  0.021  0.000  0.516  0.065  0.000  0.196  0.940
 
band   2 # energy    3.33586234 # occ.  1.00000000
 
ion      s     py     pz     px    dxy    dyz    dz2    dxz    dx2    tot
  1  0.000  0.005  0.005  0.000  0.488  0.000  0.000  0.488  0.000  0.987
 
band   3 # energy    6.32146319 # occ.  1.00000000
 
ion      s     py     pz     px    dxy    dyz    dz2    dxz    dx2    tot
  1  0.000  0.206  0.206  0.000  0.255  0.000  0.000  0.255  0.000  0.923
 
band   4 # energy    6.52331239 # occ.  1.00000000
 
ion      s     py     pz     px    dxy    dyz    dz2    dxz    dx2    tot
  1  0.013  0.000  0.000  0.001  0.000  0.293  0.170  0.000  0.510  0.987
 
band   5 # energy    6.70557451 # occ.  1.04038053
 
ion      s     py     pz     px    dxy    dyz    dz2    dxz    dx2    tot
  1  0.000  0.000  0.000  0.000  0.000  0.000  0.741  0.000  0.247  0.988
 
band   6 # energy    9.86987290 # occ. -0.00362384
 
ion      s     py     pz     px    dxy    dyz    dz2    dxz    dx2    tot
  1  0.000  0.209  0.209  0.000  0.253  0.000  0.000  0.253  0.000  0.925
 
band   7 # energy   16.12810062 # occ.  0.00000000
 
ion      s     py     pz     px    dxy    dyz    dz2    dxz    dx2    tot
  1  0.426  0.000  0.000  0.021  0.000  0.446  0.027  0.000  0.082  1.002
 
band   8 # energy   25.28392273 # occ.  0.00000000
 
ion      s     py     pz     px    dxy    dyz    dz2    dxz    dx2    tot
  1  0.000  0.143  0.143  0.000  0.154  0.000  0.000  0.154  0.000  0.593
 
band   9 # energy   27.66427230 # occ.  0.00000000
 
ion      s     py     pz     px    dxy    dyz    dz2    dxz    dx2    tot
  1  0.130  0.000  0.000  0.617  0.000  0.023  0.015  0.000  0.044  0.829
 
band  10 # energy   34.85709980 # occ.  0.00000000
 
ion      s     py     pz     px    dxy    dyz    dz2    dxz    dx2    tot
  1  0.000  0.003  0.003  0.000  0.561  0.000  0.000  0.561  0.000  1.129
 
band  11 # energy   39.96982341 # occ.  0.00000000
 
ion      s     py     pz     px    dxy    dyz    dz2    dxz    dx2    tot
  1  0.153  0.000  0.000  0.115  0.000  0.004  0.230  0.000  0.689  1.190
 
band  12 # energy   44.57100768 # occ.  0.00000000
 
ion      s     py     pz     px    dxy    dyz    dz2    dxz    dx2    tot
  1  0.000  0.038  0.038  0.000  0.009  0.000  0.000  0.009  0.000  0.094
 

 k-point    5 :   -0.06250000 0.06250000 0.06250000     weight = 0.01171875

band   1 # energy   -1.69287244 # occ.  1.00000000
 
ion      s     py     pz     px    dxy    dyz    dz2    dxz    dx2    tot
  1  0.838  0.000  0.000  0.030  0.000  0.000  0.000  0.000  0.001  0.869
 
band   2 # energy    4.74538791 # occ.  1.00000000
 
ion      s     py     pz     px    dxy    dyz    dz2    dxz    dx2    tot
  1  0.000  0.002  0.002  0.000  0.497  0.000  0.000  0.497  0.000  0.996
 
band   3 # energy    4.74538797 # occ.  1.00000000
 
ion      s     py     pz     px    dxy    dyz    dz2    dxz    dx2    tot
  1  0.000  0.002  0.002  0.000  0.497  0.000  0.000  0.497  0.000  0.996
 
band   4 # energy    4.85867024 # occ.  1.00000000
 
ion      s     py     pz     px    dxy    dyz    dz2    dxz    dx2    tot
  1  0.000  0.000  0.000  0.000  0.000  0.997  0.000  0.000  0.000  0.997
 
band   5 # energy    6.24514811 # occ.  1.00000000
 
ion      s     py     pz     px    dxy    dyz    dz2    dxz    dx2    tot
  1  0.000  0.000  0.000  0.000  0.000  0.000  0.724  0.000  0.241  0.966
 
band   6 # energy    6.51223480 # occ.  1.00000000
 
ion      s     py     pz     px    dxy    dyz    dz2    dxz    dx2    tot
  1  0.001  0.000  0.000  0.000  0.000  0.000  0.243  0.000  0.730  0.975
 
band   7 # energy   31.92755536 # occ.  0.00000000
 
ion      s     py     pz     px    dxy    dyz    dz2    dxz    dx2    tot
  1  0.000  0.000  0.000  0.000  0.000  0.000  0.230  0.000  0.077  0.306
 
band   8 # energy   33.40786462 # occ.  0.00000000
 
ion      s     py     pz     px    dxy    dyz    dz2    dxz    dx2    tot
  1  0.000  0.007  0.007  0.000  0.124  0.000  0.000  0.125  0.000  0.262
 
band   9 # energy   33.40786462 # occ.  0.00000000
 
ion      s     py     pz     px    dxy    dyz    dz2    dxz    dx2    tot
  1  0.000  0.007  0.007  0.000  0.125  0.000  0.000  0.124  0.000  0.262
 
band  10 # energy   37.61642482 # occ.  0.00000000
 
ion      s     py     pz     px    dxy    dyz    dz2    dxz    dx2    tot
  1  0.014  0.000  0.000  0.238  0.000  0.000  0.113  0.000  0.340  0.706
 
band  11 # energy   40.50368710 # occ.  0.00000000
 
ion      s     py     pz     px    dxy    dyz    dz2    dxz    dx2    tot
  1  0.000  0.195  0.218  0.000  0.406  0.000  0.000  0.454  0.000  1.273
 
band  12 # energy   40.50368712 # occ.  0.00000000
 
ion      s     py     pz     px    dxy    dyz    dz2    dxz    dx2    tot
  1  0.000  0.218  0.195  0.000  0.454  0.000  0.000  0.406  0.000  1.273
 

 k-point    6 :    0.18750000 0.18750000 0.06250000     weight = 0.04687500

band   1 # energy    2.29666009 # occ.  1.00000000
 
ion      s     py     pz     px    dxy    dyz    dz2    dxz    dx2    tot
  1  0.324  0.056  0.083  0.056  0.002  0.172  0.048  0.172  0.000  0.911
 
band   2 # energy    3.59615916 # occ.  1.00000000
 
ion      s     py     pz     px    dxy    dyz    dz2    dxz    dx2    tot
  1  0.000  0.028  0.000  0.028  0.000  0.356  0.000  0.356  0.194  0.962
 
band   3 # energy    3.85659218 # occ.  1.00000000
 
ion      s     py     pz     px    dxy    dyz    dz2    dxz    dx2    tot
  1  0.042  0.006  0.092  0.006  0.670  0.072  0.006  0.072  0.000  0.965
 
band   4 # energy    6.36097544 # occ.  1.00000000
 
ion      s     py     pz     px    dxy    dyz    dz2    dxz    dx2    tot
  1  0.000  0.001  0.000  0.001  0.000  0.109  0.000  0.109  0.761  0.980
 
band   5 # energy    6.68532742 # occ.  1.00205443
 
ion      s     py     pz     px    dxy    dyz    dz2    dxz    dx2    tot
  1  0.006  0.000  0.001  0.000  0.000  0.034  0.911  0.034  0.000  0.986
 
band   6 # energy    8.75093272 # occ. -0.04049626
 
ion      s     py     pz     px    dxy    dyz    dz2    dxz    dx2    tot
  1  0.065  0.037  0.069  0.037  0.311  0.215  0.019  0.215  0.000  0.968
 
band   7 # energy   22.14953293 # occ.  0.00000000
 
ion      s     py     pz     px    dxy    dyz    dz2    dxz    dx2    tot
  1  0.000  0.170  0.000  0.170  0.000  0.211  0.000  0.211  0.174  0.935
 
band   8 # energy   23.20687594 # occ.  0.00000000
 
ion      s     py     pz     px    dxy    dyz    dz2    dxz    dx2    tot
  1  0.184  0.007  0.266  0.007  0.111  0.129  0.029  0.129  0.000  0.863
 
band   9 # energy   27.57482693 # occ.  0.00000000
 
ion      s     py     pz     px    dxy    dyz    dz2    dxz    dx2    tot
  1  0.178  0.218  0.001  0.218  0.196  0.002  0.034  0.002  0.000  0.850
 
band  10 # energy   37.35374451 # occ.  0.00000000
 
ion      s     py     pz     px    dxy    dyz    dz2    dxz    dx2    tot
  1  0.000  0.011  0.000  0.011  0.000  0.114  0.000  0.114  0.138  0.389
 
band  11 # energy   41.84981043 # occ.  0.00000000
 
ion      s     py     pz     px    dxy    dyz    dz2    dxz    dx2    tot
  1  0.019  0.018  0.022  0.018  0.506  0.199  0.014  0.199  0.000  0.995
 
band  12 # energy   44.49002606 # occ.  0.00000000
 
ion      s     py     pz     px    dxy    dyz    dz2    dxz    dx2    tot
  1  0.000  0.085  0.000  0.085  0.000  0.079  0.000  0.079  0.488  0.815
 

 k-point    7 :    0.31250000 0.18750000 0.06250000     weight = 0.09375000

band   1 # energy    2.58138262 # occ.  1.00000000
 
ion      s     py     pz     px    dxy    dyz    dz2    dxz    dx2    tot
  1  0.101  0.002  0.007  0.061  0.036  0.546  0.055  0.042  0.099  0.949
 
band   2 # energy    3.38587727 # occ.  1.00000000
 
ion      s     py     pz     px    dxy    dyz    dz2    dxz    dx2    tot
  1  0.000  0.030  0.013  0.016  0.332  0.025  0.001  0.485  0.070  0.973
 
band   3 # energy    4.63506866 # occ.  1.00000000
 
ion      s     py     pz     px    dxy    dyz    dz2    dxz    dx2    tot
  1  0.024  0.115  0.160  0.001  0.361  0.010  0.070  0.142  0.053  0.936
 
band   4 # energy    6.54357085 # occ.  1.00000000
 
ion      s     py     pz     px    dxy    dyz    dz2    dxz    dx2    tot
  1  0.003  0.001  0.000  0.002  0.000  0.210  0.048  0.046  0.675  0.985
 
band   5 # energy    6.79994233 # occ.  1.01096878
 
ion      s     py     pz     px    dxy    dyz    dz2    dxz    dx2    tot
  1  0.004  0.004  0.006  0.000  0.047  0.014  0.786  0.072  0.054  0.988
 
band   6 # energy   11.43236346 # occ. -0.00210869
 
ion      s     py     pz     px    dxy    dyz    dz2    dxz    dx2    tot
  1  0.063  0.134  0.198  0.021  0.220  0.078  0.034  0.193  0.000  0.941
 
band   7 # energy   17.43321210 # occ.  0.00000000
 
ion      s     py     pz     px    dxy    dyz    dz2    dxz    dx2    tot
  1  0.240  0.121  0.024  0.088  0.013  0.360  0.007  0.023  0.083  0.959
 
band   8 # energy   21.45177038 # occ.  0.00000000
 
ion      s     py     pz     px    dxy    dyz    dz2    dxz    dx2    tot
  1  0.180  0.057  0.118  0.135  0.124  0.000  0.000  0.215  0.032  0.861
 
band   9 # energy   26.07184121 # occ.  0.00000000
 
ion      s     py     pz     px    dxy    dyz    dz2    dxz    dx2    tot
  1  0.163  0.111  0.046  0.275  0.123  0.045  0.011  0.041  0.005  0.819
 
band  10 # energy   37.93600464 # occ.  0.00000000
 
ion      s     py     pz     px    dxy    dyz    dz2    dxz    dx2    tot
  1  0.006  0.002  0.001  0.022  0.176  0.012  0.013  0.277  0.158  0.667
 
band  11 # energy   42.69589801 # occ.  0.00000000
 
ion      s     py     pz     px    dxy    dyz    dz2    dxz    dx2    tot
  1  0.004  0.055  0.003  0.000  0.194  0.073  0.122  0.008  0.109  0.567
 
band  12 # energy   45.35390211 # occ.  0.00000000
 
ion      s     py     pz     px    dxy    dyz    dz2    dxz    dx2    tot
  1  0.054  0.010  0.005  0.129  0.084  0.005  0.287  0.036  0.412  1.021
 

 k-point    8 :   -0.18750000 0.18750000 0.06250000     weight = 0.04687500

band   1 # energy   -0.37179599 # occ.  1.00000000
 
ion      s     py     pz     px    dxy    dyz    dz2    dxz    dx2    tot
  1  0.715  0.024  0.000  0.104  0.017  0.000  0.007  0.000  0.006  0.873
 
band   2 # energy    4.39773430 # occ.  1.00000000
 
ion      s     py     pz     px    dxy    dyz    dz2    dxz    dx2    tot
  1  0.000  0.000  0.003  0.000  0.000  0.384  0.000  0.605  0.000  0.992
 
band   3 # energy    4.64348898 # occ.  1.00000000
 
ion      s     py     pz     px    dxy    dyz    dz2    dxz    dx2    tot
  1  0.006  0.018  0.000  0.010  0.829  0.000  0.103  0.000  0.011  0.976
 
band   4 # energy    5.63816922 # occ.  1.00000000
 
ion      s     py     pz     px    dxy    dyz    dz2    dxz    dx2    tot
  1  0.000  0.000  0.009  0.000  0.000  0.605  0.000  0.374  0.000  0.988
 
band   5 # energy    5.91797148 # occ.  1.00000000
 
ion      s     py     pz     px    dxy    dyz    dz2    dxz    dx2    tot
  1  0.000  0.000  0.000  0.000  0.122  0.000  0.659  0.000  0.180  0.962
 
band   6 # energy    6.64440696 # occ.  1.00332426
 
ion      s     py     pz     px    dxy    dyz    dz2    dxz    dx2    tot
  1  0.006  0.000  0.000  0.001  0.005  0.000  0.188  0.000  0.778  0.979
 
band   7 # energy   27.75349719 # occ.  0.00000000
 
ion      s     py     pz     px    dxy    dyz    dz2    dxz    dx2    tot
  1  0.021  0.107  0.000  0.044  0.323  0.000  0.297  0.000  0.026  0.818
 
band   8 # energy   31.10434167 # occ.  0.00000000
 
ion      s     py     pz     px    dxy    dyz    dz2    dxz    dx2    tot
  1  0.022  0.000  0.000  0.126  0.091  0.000  0.037  0.000  0.182  0.457
 
band   9 # energy   32.40002413 # occ.  0.00000000
 
ion      s     py     pz     px    dxy    dyz    dz2    dxz    dx2    tot
  1  0.000  0.000  0.141  0.000  0.000  0.050  0.000  0.713  0.000  0.904
 
band  10 # energy   36.97195638 # occ.  0.00000000
 
ion      s     py     pz     px    dxy    dyz    dz2    dxz    dx2    tot
  1  0.004  0.193  0.000  0.094  0.298  0.000  0.103  0.000  0.008  0.700
 
band  11 # energy   37.40768566 # occ.  0.00000000
 
ion      s     py     pz     px    dxy    dyz    dz2    dxz    dx2    tot
  1  0.000  0.000  0.398  0.000  0.000  0.569  0.000  0.059  0.000  1.026
 
band  12 # energy   38.99509754 # occ.  0.00000000
 
ion      s     py     pz     px    dxy    dyz    dz2    dxz    dx2    tot
  1  0.094  0.184  0.000  0.108  0.042  0.000  0.153  0.000  0.003  0.585
 

 k-point    9 :    0.31250000 0.31250000 0.06250000     weight = 0.01562500

band   1 # energy    2.94515036 # occ.  1.00000000
 
ion      s     py     pz     px    dxy    dyz    dz2    dxz    dx2    tot
  1  0.047  0.010  0.010  0.010  0.299  0.299  0.000  0.299  0.000  0.974
 
band   2 # energy    3.84540814 # occ.  1.00000000
 
ion      s     py     pz     px    dxy    dyz    dz2    dxz    dx2    tot
  1  0.000  0.032  0.129  0.032  0.365  0.091  0.205  0.091  0.000  0.945
 
band   3 # energy    3.84540817 # occ.  1.00000000
 
ion      s     py     pz     px    dxy    dyz    dz2    dxz    dx2    tot
  1  0.000  0.096  0.000  0.096  0.000  0.274  0.000  0.274  0.205  0.945
 
band   4 # energy    6.72405897 # occ.  1.00000000
 
ion      s     py     pz     px    dxy    dyz    dz2    dxz    dx2    tot
  1  0.000  0.001  0.006  0.001  0.155  0.039  0.746  0.039  0.000  0.988
 
band   5 # energy    6.72405900 # occ.  1.01205671
 
ion      s     py     pz     px    dxy    dyz    dz2    dxz    dx2    tot
  1  0.000  0.004  0.000  0.004  0.000  0.116  0.000  0.116  0.746  0.988
 
band   6 # energy   15.23099415 # occ.  0.00000000
 
ion      s     py     pz     px    dxy    dyz    dz2    dxz    dx2    tot
  1  0.000  0.079  0.316  0.079  0.261  0.065  0.074  0.065  0.000  0.939
 
band   7 # energy   15.23099416 # occ.  0.00000000
 
ion      s     py     pz     px    dxy    dyz    dz2    dxz    dx2    tot
  1  0.000  0.237  0.000  0.237  0.000  0.195  0.000  0.195  0.074  0.939
 
band   8 # energy   18.32569728 # occ.  0.00000000
 
ion      s     py     pz     px    dxy    dyz    dz2    dxz    dx2    tot
  1  0.583  0.003  0.003  0.003  0.102  0.102  0.000  0.102  0.000  0.899
 
band   9 # energy   25.55305799 # occ.  0.00000000
 
ion      s     py     pz     px    dxy    dyz    dz2    dxz    dx2    tot
  1  0.158  0.135  0.135  0.135  0.096  0.096  0.000  0.096  0.000  0.849
 
band  10 # energy   40.54239926 # occ.  0.00000000
 
ion      s     py     pz     px    dxy    dyz    dz2    dxz    dx2    tot
  1  0.000  0.024  0.000  0.024  0.000  0.066  0.000  0.065  0.324  0.504
 
band  11 # energy   40.54239926 # occ.  0.00000000
 
ion      s     py     pz     px    dxy    dyz    dz2    dxz    dx2    tot
  1  0.000  0.008  0.032  0.008  0.088  0.022  0.324  0.022  0.000  0.504
 
band  12 # energy   49.01155316 # occ.  0.00000000
 
ion      s     py     pz     px    dxy    dyz    dz2    dxz    dx2    tot
  1  0.016  0.050  0.050  0.050  0.440  0.440  0.000  0.440  0.000  1.486
 

 k-point   10 :   -0.31250000 0.31250000 0.06250000     weight = 0.04687500

band   1 # energy    1.32584083 # occ.  1.00000000
 
ion      s     py     pz     px    dxy    dyz    dz2    dxz    dx2    tot
  1  0.416  0.032  0.000  0.111  0.226  0.000  0.106  0.000  0.010  0.901
 
band   2 # energy    3.88688608 # occ.  1.00000000
 
ion      s     py     pz     px    dxy    dyz    dz2    dxz    dx2    tot
  1  0.000  0.000  0.003  0.000  0.000  0.446  0.000  0.539  0.000  0.988
 
band   3 # energy    4.71060947 # occ.  1.00000000
 
ion      s     py     pz     px    dxy    dyz    dz2    dxz    dx2    tot
  1  0.074  0.091  0.000  0.101  0.275  0.000  0.251  0.000  0.132  0.924
 
band   4 # energy    6.15913316 # occ.  1.00000000
 
ion      s     py     pz     px    dxy    dyz    dz2    dxz    dx2    tot
  1  0.001  0.012  0.000  0.013  0.432  0.000  0.486  0.000  0.033  0.978
 
band   5 # energy    6.86318785 # occ.  1.00487246
 
ion      s     py     pz     px    dxy    dyz    dz2    dxz    dx2    tot
  1  0.035  0.010  0.000  0.021  0.001  0.000  0.107  0.000  0.806  0.979
 
band   6 # energy    6.92637497 # occ.  0.61947257
 
ion      s     py     pz     px    dxy    dyz    dz2    dxz    dx2    tot
  1  0.000  0.000  0.013  0.000  0.000  0.539  0.000  0.433  0.000  0.984
 
band   7 # energy   21.92574418 # occ.  0.00000000
 
ion      s     py     pz     px    dxy    dyz    dz2    dxz    dx2    tot
  1  0.138  0.173  0.000  0.090  0.385  0.000  0.170  0.000  0.009  0.965
 
band   8 # energy   28.47629282 # occ.  0.00000000
 
ion      s     py     pz     px    dxy    dyz    dz2    dxz    dx2    tot
  1  0.025  0.054  0.000  0.139  0.008  0.000  0.079  0.000  0.093  0.396
 
band   9 # energy   30.52750140 # occ.  0.00000000
 
ion      s     py     pz     px    dxy    dyz    dz2    dxz    dx2    tot
  1  0.000  0.000  0.434  0.000  0.000  0.032  0.000  0.622  0.000  1.087
 
band  10 # energy   35.17142094 # occ.  0.00000000
 
ion      s     py     pz     px    dxy    dyz    dz2    dxz    dx2    tot
  1  0.000  0.000  0.238  0.000  0.000  0.743  0.000  0.145  0.000  1.126
 
band  11 # energy   37.40562386 # occ.  0.00000000
 
ion      s     py     pz     px    dxy    dyz    dz2    dxz    dx2    tot
  1  0.072  0.240  0.000  0.000  0.063  0.000  0.549  0.000  0.010  0.934
 
band  12 # energy   40.26963098 # occ.  0.00000000
 
ion      s     py     pz     px    dxy    dyz    dz2    dxz    dx2    tot
  1  0.132  0.007  0.000  0.066  0.184  0.000  0.084  0.000  0.119  0.592
 

 k-point   11 :   -0.18750000 0.31250000 0.06250000     weight = 0.04687500

band   1 # energy    1.18897983 # occ.  1.00000000
 
ion      s     py     pz     px    dxy    dyz    dz2    dxz    dx2    tot
  1  0.513  0.016  0.016  0.176  0.046  0.000  0.018  0.046  0.055  0.884
 
band   2 # energy    4.12198097 # occ.  1.00000000
 
ion      s     py     pz     px    dxy    dyz    dz2    dxz    dx2    tot
  1  0.000  0.015  0.015  0.000  0.292  0.000  0.255  0.292  0.085  0.955
 
band   3 # energy    4.37703836 # occ.  1.00000000
 
ion      s     py     pz     px    dxy    dyz    dz2    dxz    dx2    tot
  1  0.013  0.006  0.006  0.029  0.223  0.477  0.000  0.223  0.000  0.980
 
band   4 # energy    5.73643362 # occ.  1.00000000
 
ion      s     py     pz     px    dxy    dyz    dz2    dxz    dx2    tot
  1  0.000  0.002  0.002  0.000  0.183  0.000  0.447  0.183  0.149  0.967
 
band   5 # energy    6.60417439 # occ.  1.00531689
 
ion      s     py     pz     px    dxy    dyz    dz2    dxz    dx2    tot
  1  0.000  0.006  0.006  0.003  0.182  0.398  0.051  0.182  0.154  0.984
 
band   6 # energy    7.08469851 # occ.  0.64457250
 
ion      s     py     pz     px    dxy    dyz    dz2    dxz    dx2    tot
  1  0.053  0.007  0.007  0.029  0.030  0.109  0.179  0.030  0.536  0.979
 
band   7 # energy   24.86898489 # occ.  0.00000000
 
ion      s     py     pz     px    dxy    dyz    dz2    dxz    dx2    tot
  1  0.000  0.122  0.122  0.000  0.165  0.000  0.271  0.165  0.090  0.935
 
band   8 # energy   26.16739817 # occ.  0.00000000
 
ion      s     py     pz     px    dxy    dyz    dz2    dxz    dx2    tot
  1  0.137  0.057  0.057  0.181  0.193  0.026  0.003  0.193  0.008  0.854
 
band   9 # energy   32.68124302 # occ.  0.00000000
 
ion      s     py     pz     px    dxy    dyz    dz2    dxz    dx2    tot
  1  0.000  0.055  0.055  0.000  0.195  0.000  0.206  0.195  0.069  0.776
 
band  10 # energy   33.50719420 # occ.  0.00000000
 
ion      s     py     pz     px    dxy    dyz    dz2    dxz    dx2    tot
  1  0.002  0.233  0.233  0.046  0.039  0.101  0.004  0.039  0.012  0.712
 
band  11 # energy   37.42166184 # occ.  0.00000000
 
ion      s     py     pz     px    dxy    dyz    dz2    dxz    dx2    tot
  1  0.101  0.004  0.004  0.057  0.135  0.453  0.016  0.135  0.047  0.952
 
band  12 # energy   42.36508563 # occ.  0.00000000
 
ion      s     py     pz     px    dxy    dyz    dz2    dxz    dx2    tot
  1  0.000  0.156  0.156  0.000  0.000  0.000  0.144  0.000  0.048  0.504
 

 k-point   12 :   -0.43750000 0.43750000 0.06250000     weight = 0.04687500

band   1 # energy    1.68610582 # occ.  1.00000000
 
ion      s     py     pz     px    dxy    dyz    dz2    dxz    dx2    tot
  1  0.172  0.000  0.000  0.020  0.454  0.000  0.287  0.000  0.001  0.934
 
band   2 # energy    3.54355858 # occ.  1.00000000
 
ion      s     py     pz     px    dxy    dyz    dz2    dxz    dx2    tot
  1  0.000  0.000  0.003  0.000  0.000  0.479  0.000  0.506  0.000  0.988
 
band   3 # energy    5.70408717 # occ.  1.00000000
 
ion      s     py     pz     px    dxy    dyz    dz2    dxz    dx2    tot
  1  0.024  0.108  0.000  0.118  0.000  0.000  0.089  0.000  0.591  0.929
 
band   4 # energy    6.39549943 # occ.  1.00000000
 
ion      s     py     pz     px    dxy    dyz    dz2    dxz    dx2    tot
  1  0.009  0.008  0.000  0.007  0.348  0.000  0.555  0.000  0.056  0.983
 
band   5 # energy    7.97357238 # occ.  0.13997953
 
ion      s     py     pz     px    dxy    dyz    dz2    dxz    dx2    tot
  1  0.000  0.000  0.003  0.000  0.000  0.512  0.000  0.478  0.000  0.992
 
band   6 # energy    8.15177415 # occ.  0.00113129
 
ion      s     py     pz     px    dxy    dyz    dz2    dxz    dx2    tot
  1  0.049  0.215  0.000  0.259  0.047  0.000  0.008  0.000  0.344  0.921
 
band   7 # energy   17.04097229 # occ.  0.00000000
 
ion      s     py     pz     px    dxy    dyz    dz2    dxz    dx2    tot
  1  0.357  0.083  0.000  0.020  0.411  0.000  0.124  0.000  0.003  0.999
 
band   8 # energy   26.93782525 # occ.  0.00000000
 
ion      s     py     pz     px    dxy    dyz    dz2    dxz    dx2    tot
  1  0.022  0.104  0.000  0.129  0.003  0.000  0.080  0.000  0.011  0.350
 
band   9 # energy   28.79584133 # occ.  0.00000000
 
ion      s     py     pz     px    dxy    dyz    dz2    dxz    dx2    tot
  1  0.000  0.000  0.629  0.000  0.000  0.067  0.000  0.253  0.000  0.949
 
band  10 # energy   34.40236752 # occ.  0.00000000
 
ion      s     py     pz     px    dxy    dyz    dz2    dxz    dx2    tot
  1  0.000  0.000  0.138  0.000  0.000  0.702  0.000  0.507  0.000  1.347
 
band  11 # energy   37.88406380 # occ.  0.00000000
 
ion      s     py     pz     px    dxy    dyz    dz2    dxz    dx2    tot