<?xml version="1.0" encoding="ISO-8859-1"?>
<modeling>
 <generator>
  <i name="program" type="string">vasp </i>
  <i name="version" type="string">5.4.1  </i>
  <i name="subversion" type="string">24Jun15 (build Jul 19 2016 16:50:41) complex                          parallel </i>
  <i name="platform" type="string">IFC91_ompi </i>
  <i name="date" type="string">2019 10 17 </i>
  <i name="time" type="string">12:22:02 </i>
 </generator>
 <incar>
  <i type="string" name="SYSTEM"> Fe BCC</i>
  <i type="string" name="PREC">accurate</i>
  <i type="int" name="ISPIN">     2</i>
  <i name="EDIFF">      0.00000100</i>
  <i name="ENMAX">    400.00000000</i>
  <v name="MAGMOM">      4.00000000</v>
  <i type="int" name="ISMEAR">    -5</i>
  <i type="logical" name="LORBIT"> F  </i>
  <v type="int" name="KPOINT_BSE">    -1     0     0     0</v>
 </incar>
 <kpoints>
  <generation param="Monkhorst-Pack">
   <v type="int" name="divisions">       8        8        8 </v>
   <v name="usershift">      0.00000000       0.00000000       0.00000000 </v>
   <v name="genvec1">      0.12500000       0.00000000       0.00000000 </v>
   <v name="genvec2">      0.00000000       0.12500000       0.00000000 </v>
   <v name="genvec3">      0.00000000       0.00000000       0.12500000 </v>
   <v name="shift">      0.50000000       0.50000000       0.50000000 </v>
  </generation>
  <varray name="kpointlist" >
   <v>       0.06250000       0.06250000       0.06250000 </v>
   <v>       0.18750000       0.06250000       0.06250000 </v>
   <v>       0.31250000       0.06250000       0.06250000 </v>
   <v>       0.43750000       0.06250000       0.06250000 </v>
   <v>      -0.06250000       0.06250000       0.06250000 </v>
   <v>       0.18750000       0.18750000       0.06250000 </v>
   <v>       0.31250000       0.18750000       0.06250000 </v>
   <v>      -0.18750000       0.18750000       0.06250000 </v>
   <v>       0.31250000       0.31250000       0.06250000 </v>
   <v>      -0.31250000       0.31250000       0.06250000 </v>
   <v>      -0.18750000       0.31250000       0.06250000 </v>
   <v>      -0.43750000       0.43750000       0.06250000 </v>
   <v>      -0.31250000       0.43750000       0.06250000 </v>
   <v>      -0.43750000      -0.43750000       0.06250000 </v>
   <v>      -0.31250000      -0.43750000       0.06250000 </v>
   <v>       0.18750000       0.18750000       0.18750000 </v>
   <v>       0.31250000       0.18750000       0.18750000 </v>
   <v>      -0.18750000       0.18750000       0.18750000 </v>
   <v>      -0.31250000       0.31250000       0.18750000 </v>
   <v>      -0.43750000       0.43750000       0.18750000 </v>
   <v>      -0.31250000       0.43750000       0.18750000 </v>
   <v>      -0.43750000      -0.43750000       0.18750000 </v>
   <v>      -0.31250000       0.31250000       0.31250000 </v>
   <v>      -0.43750000       0.43750000       0.31250000 </v>
   <v>      -0.43750000      -0.43750000       0.31250000 </v>
   <v>      -0.43750000       0.43750000       0.43750000 </v>
  </varray>
  <varray name="weights" >
   <v>       0.01562500 </v>
   <v>       0.04687500 </v>
   <v>       0.04687500 </v>
   <v>       0.02343750 </v>
   <v>       0.01171875 </v>
   <v>       0.04687500 </v>
   <v>       0.09375000 </v>
   <v>       0.04687500 </v>
   <v>       0.01562500 </v>
   <v>       0.04687500 </v>
   <v>       0.04687500 </v>
   <v>       0.04687500 </v>
   <v>       0.09375000 </v>
   <v>       0.04687500 </v>
   <v>       0.04687500 </v>
   <v>       0.01562500 </v>
   <v>       0.02343750 </v>
   <v>       0.01171875 </v>
   <v>       0.04687500 </v>
   <v>       0.04687500 </v>
   <v>       0.04687500 </v>
   <v>       0.04687500 </v>
   <v>       0.01171875 </v>
   <v>       0.04687500 </v>
   <v>       0.01562500 </v>
   <v>       0.01171875 </v>
  </varray>
  <varray name="tetrahedronlist"  type="int" >
   <v type="int" >        4        1        2        2        6 </v>
   <v type="int" >        8        2        2        6        6 </v>
   <v type="int" >        4        2        6        6       16 </v>
   <v type="int" >        4        2        3        6        7 </v>
   <v type="int" >        4        2        6        6        7 </v>
   <v type="int" >       12        6        6        7       16 </v>
   <v type="int" >        8        3        6        7        7 </v>
   <v type="int" >        8        6        7        7       17 </v>
   <v type="int" >        8        6        7       16       17 </v>
   <v type="int" >        4        3        4        7        7 </v>
   <v type="int" >        4        3        7        7        7 </v>
   <v type="int" >       16        7        7        7       17 </v>
   <v type="int" >        8        4        7        7        7 </v>
   <v type="int" >        4        7        7        7       16 </v>
   <v type="int" >       20        7        7       16       17 </v>
   <v type="int" >        4        3        4        6        7 </v>
   <v type="int" >        4        4        6        7        7 </v>
   <v type="int" >       16        6        7        7       16 </v>
   <v type="int" >        8        3        6        6        7 </v>
   <v type="int" >        4        6        6        6        7 </v>
   <v type="int" >        4        2        2        3        6 </v>
   <v type="int" >        8        2        3        6        6 </v>
   <v type="int" >        4        2        6        6        6 </v>
   <v type="int" >        4        2        2        2        6 </v>
   <v type="int" >        8        2        2        6       11 </v>
   <v type="int" >        4        2        6        6       11 </v>
   <v type="int" >       16        1        2        2        8 </v>
   <v type="int" >        4        2        2        2        8 </v>
   <v type="int" >       12        2        2        8       11 </v>
   <v type="int" >       16        1        2        8        8 </v>
   <v type="int" >        4        2        8        8       18 </v>
   <v type="int" >        4        2        8       11       18 </v>
   <v type="int" >       20        1        5        8        8 </v>
   <v type="int" >        4        1        8        8        8 </v>
   <v type="int" >        4        8        8        8       18 </v>
   <v type="int" >        8        5        8        8        8 </v>
   <v type="int" >        4        8        8        8       11 </v>
   <v type="int" >        4        8        8       11       18 </v>
   <v type="int" >        8        1        2        5        8 </v>
   <v type="int" >        8        2        5        8        8 </v>
   <v type="int" >        8        2        8        8       11 </v>
   <v type="int" >        4        2        2        6        8 </v>
   <v type="int" >        4        2        6        8       11 </v>
   <v type="int" >        4        6        7        9       16 </v>
   <v type="int" >       16        7        9       16       17 </v>
   <v type="int" >       12        9       16       17       17 </v>
   <v type="int" >       20        7        7        9       17 </v>
   <v type="int" >       12        7        9       17       17 </v>
   <v type="int" >        8        7        7       17       17 </v>
   <v type="int" >       12        3        6        7       16 </v>
   <v type="int" >        8        3        7        7       16 </v>
   <v type="int" >        8        3        6        6       16 </v>
   <v type="int" >        4        3        6       13       16 </v>
   <v type="int" >        4        3        7       13       16 </v>
   <v type="int" >        4        2        6        6       10 </v>
   <v type="int" >        4        3        6        6       10 </v>
   <v type="int" >        8        3        6       10       13 </v>
   <v type="int" >       12        2        6       10       11 </v>
   <v type="int" >        4        6       10       11       19 </v>
   <v type="int" >        4        6       10       13       19 </v>
   <v type="int" >        4        2        8       11       11 </v>
   <v type="int" >        4        2       10       11       11 </v>
   <v type="int" >        4       10       11       11       19 </v>
   <v type="int" >        8        8       11       11       18 </v>
   <v type="int" >        8       11       11       18       19 </v>
   <v type="int" >        4       11       11       19       19 </v>
   <v type="int" >        4        8        8       10       18 </v>
   <v type="int" >       12        8       10       11       18 </v>
   <v type="int" >       12       10       11       18       19 </v>
   <v type="int" >        4       10       11       13       18 </v>
   <v type="int" >        4       10       13       18       19 </v>
   <v type="int" >        4        2        3        8       11 </v>
   <v type="int" >        4        3        8       10       11 </v>
   <v type="int" >        8        3       10       11       13 </v>
   <v type="int" >       16        2        3        6       11 </v>
   <v type="int" >        4        3        6        7       11 </v>
   <v type="int" >        4        3        7       11       13 </v>
   <v type="int" >        4        4        7        9       17 </v>
   <v type="int" >        8        4        7        7       17 </v>
   <v type="int" >        4        4        7       14       17 </v>
   <v type="int" >        4        3        7        7       12 </v>
   <v type="int" >        8        4        7        7       12 </v>
   <v type="int" >        8        4        7       12       14 </v>
   <v type="int" >        8        3        7       12       13 </v>
   <v type="int" >        4        7       12       13       20 </v>
   <v type="int" >        4        7       12       14       20 </v>
   <v type="int" >        4        3       10       13       13 </v>
   <v type="int" >        4        3       12       13       13 </v>
   <v type="int" >        4       12       13       13       20 </v>
   <v type="int" >        8       10       13       13       19 </v>
   <v type="int" >       12       13       13       19       21 </v>
   <v type="int" >        4       13       13       20       21 </v>
   <v type="int" >        8       10       11       13       19 </v>
   <v type="int" >        8       11       13       19       19 </v>
   <v type="int" >        4       13       19       19       20 </v>
   <v type="int" >        8       13       19       20       21 </v>
   <v type="int" >        4       10       11       12       19 </v>
   <v type="int" >        4       11       12       13       19 </v>
   <v type="int" >        8       12       13       19       20 </v>
   <v type="int" >        8       10       12       13       19 </v>
   <v type="int" >        4       12       13       14       19 </v>
   <v type="int" >        4       12       14       19       20 </v>
   <v type="int" >        4        3        4       10       13 </v>
   <v type="int" >        4        4       10       12       13 </v>
   <v type="int" >       12        4       12       13       14 </v>
   <v type="int" >       12        3        4        7       13 </v>
   <v type="int" >        8        4        7        7       13 </v>
   <v type="int" >       12        4        7       13       14 </v>
   <v type="int" >        4        4       12       14       14 </v>
   <v type="int" >        4       12       14       14       20 </v>
   <v type="int" >        4       14       14       20       22 </v>
   <v type="int" >        4       12       13       15       20 </v>
   <v type="int" >        4       12       14       15       20 </v>
   <v type="int" >        8       14       15       20       22 </v>
   <v type="int" >       12       13       15       20       21 </v>
   <v type="int" >       12       15       20       21       22 </v>
   <v type="int" >        4       15       20       22       22 </v>
   <v type="int" >        4       13       13       14       21 </v>
   <v type="int" >       12       13       14       15       21 </v>
   <v type="int" >       16       14       15       21       22 </v>
   <v type="int" >        8       13       14       20       21 </v>
   <v type="int" >        4       14       20       20       21 </v>
   <v type="int" >       12       14       20       21       22 </v>
   <v type="int" >        4       12       12       13       20 </v>
   <v type="int" >        8       12       13       14       20 </v>
   <v type="int" >        8       12       14       20       20 </v>
   <v type="int" >        8       12       12       14       20 </v>
   <v type="int" >        4       12       13       20       20 </v>
   <v type="int" >       16        3        4       12       14 </v>
   <v type="int" >        8        3       12       12       14 </v>
   <v type="int" >        8        3       12       13       14 </v>
   <v type="int" >       16        3        4        7       14 </v>
   <v type="int" >        4        3        6        7       14 </v>
   <v type="int" >        4        3        6       13       14 </v>
   <v type="int" >        8       14       15       15       22 </v>
   <v type="int" >        8       15       15       22       22 </v>
   <v type="int" >        8       15       21       22       22 </v>
   <v type="int" >       12       13       14       15       22 </v>
   <v type="int" >        4       13       15       15       22 </v>
   <v type="int" >        8       13       15       21       22 </v>
   <v type="int" >       12       13       14       20       22 </v>
   <v type="int" >        4       13       19       20       22 </v>
   <v type="int" >        4       13       19       21       22 </v>
   <v type="int" >        4       10       12       14       20 </v>
   <v type="int" >        4       10       13       14       20 </v>
   <v type="int" >        8       10       13       19       20 </v>
   <v type="int" >        8       10       12       13       20 </v>
   <v type="int" >        4       10       11       13       20 </v>
   <v type="int" >        4       10       11       19       20 </v>
   <v type="int" >        4        2        3       12       13 </v>
   <v type="int" >        4        2       10       12       13 </v>
   <v type="int" >        8        2       10       11       13 </v>
   <v type="int" >       12        2        3        6       13 </v>
   <v type="int" >        4        2        2        6       13 </v>
   <v type="int" >        4        2        2       11       13 </v>
   <v type="int" >        4       11       13       15       21 </v>
   <v type="int" >        8       11       13       19       21 </v>
   <v type="int" >        4       11       18       19       21 </v>
   <v type="int" >        4        8       10       13       19 </v>
   <v type="int" >        4        8       11       13       19 </v>
   <v type="int" >        8        8       11       18       19 </v>
   <v type="int" >        8        8       10       11       19 </v>
   <v type="int" >        4        8        8       11       19 </v>
   <v type="int" >        4        8        8       18       19 </v>
   <v type="int" >        4        1        2       10       11 </v>
   <v type="int" >        4        1        8       10       11 </v>
   <v type="int" >        8        1        8        8       11 </v>
   <v type="int" >        8        1        2        2       11 </v>
   <v type="int" >       12        1        2        8       11 </v>
   <v type="int" >        4        5        8       11       18 </v>
   <v type="int" >        4        5        8        8       18 </v>
   <v type="int" >        4        1        5        8       18 </v>
   <v type="int" >        4        5        5        8        8 </v>
   <v type="int" >       12        1        5        5        8 </v>
   <v type="int" >        6        1        1        5        5 </v>
   <v type="int" >        8        1        1        5        8 </v>
   <v type="int" >        4        1        1        2        8 </v>
   <v type="int" >        4        2        3        6       16 </v>
   <v type="int" >        4        3        7       16       17 </v>
   <v type="int" >       12        7       16       17       17 </v>
   <v type="int" >        8        7       17       17       17 </v>
   <v type="int" >       12        7        7        9       16 </v>
   <v type="int" >        4        6        6        7        7 </v>
   <v type="int" >       16        3        6        7       13 </v>
   <v type="int" >       12        6        7        7       13 </v>
   <v type="int" >        4        3        6        6       11 </v>
   <v type="int" >       12        3        6       11       13 </v>
   <v type="int" >       12        2        3       10       11 </v>
   <v type="int" >        4        3       10       11       19 </v>
   <v type="int" >        4        3       11       13       19 </v>
   <v type="int" >        4        2        8       10       18 </v>
   <v type="int" >        4        2       10       11       18 </v>
   <v type="int" >        4       10       18       19       19 </v>
   <v type="int" >        4        8        8       11       11 </v>
   <v type="int" >        4        8       10       11       11 </v>
   <v type="int" >        4       10       11       11       13 </v>
   <v type="int" >        4       11       11       13       19 </v>
   <v type="int" >        4        2        6        8       10 </v>
   <v type="int" >        4        6        8       10       11 </v>
   <v type="int" >       12        6       10       11       13 </v>
   <v type="int" >        8        2        3        6       10 </v>
   <v type="int" >        4        3        6        7       10 </v>
   <v type="int" >        4        6        7       10       13 </v>
   <v type="int" >        4       16       17       17       17 </v>
   <v type="int" >        4       17       17       17       17 </v>
   <v type="int" >        4        9       17       17       17 </v>
   <v type="int" >        8        7        7       15       17 </v>
   <v type="int" >        8        7        9       15       17 </v>
   <v type="int" >        4        6        7       13       16 </v>
   <v type="int" >        4        7        7       13       16 </v>
   <v type="int" >       12        7        7       13       15 </v>
   <v type="int" >        8        6        7       13       13 </v>
   <v type="int" >        4        7       13       13       21 </v>
   <v type="int" >        4        7       13       15       21 </v>
   <v type="int" >        4        6       11       13       19 </v>
   <v type="int" >        4        6       13       13       19 </v>
   <v type="int" >        4       13       19       19       23 </v>
   <v type="int" >        4       13       19       21       23 </v>
   <v type="int" >        4       11       18       19       19 </v>
   <v type="int" >        4       11       19       19       19 </v>
   <v type="int" >        4       19       19       19       23 </v>
   <v type="int" >        4       18       19       19       19 </v>
   <v type="int" >        4       19       19       19       21 </v>
   <v type="int" >        4       19       19       21       23 </v>
   <v type="int" >        4       11       13       18       19 </v>
   <v type="int" >        4       13       18       19       19 </v>
   <v type="int" >        8       13       19       19       21 </v>
   <v type="int" >       12       11       13       13       19 </v>
   <v type="int" >        4       13       13       15       19 </v>
   <v type="int" >        4       13       15       19       21 </v>
   <v type="int" >        4        6        7       11       13 </v>
   <v type="int" >        4        7       11       13       13 </v>
   <v type="int" >        8        7       13       13       15 </v>
   <v type="int" >        4        7        7        9       13 </v>
   <v type="int" >        4        7        9       13       15 </v>
   <v type="int" >        4        7        9       14       17 </v>
   <v type="int" >       12        7        9       14       15 </v>
   <v type="int" >        4        9       14       15       22 </v>
   <v type="int" >        4        7       13       15       20 </v>
   <v type="int" >        4        7       14       15       20 </v>
   <v type="int" >        4       15       20       21       24 </v>
   <v type="int" >        4       15       20       22       24 </v>
   <v type="int" >        4       13       19       21       21 </v>
   <v type="int" >        4       13       20       21       21 </v>
   <v type="int" >        4       20       21       21       24 </v>
   <v type="int" >        8       19       21       21       23 </v>
   <v type="int" >        8       21       21       23       24 </v>
   <v type="int" >        4       21       21       24       24 </v>
   <v type="int" >        4       19       19       20       23 </v>
   <v type="int" >       12       19       20       21       23 </v>
   <v type="int" >       12       20       21       23       24 </v>
   <v type="int" >        4       20       21       22       23 </v>
   <v type="int" >        4       20       22       23       24 </v>
   <v type="int" >        4       13       14       19       21 </v>
   <v type="int" >        4       14       19       20       21 </v>
   <v type="int" >        4       14       15       15       21 </v>
   <v type="int" >       16        7       13       14       15 </v>
   <v type="int" >        8        7       14       15       15 </v>
   <v type="int" >       16        7        7        9       15 </v>
   <v type="int" >        4        7        7       15       15 </v>
   <v type="int" >        4       14       20       22       22 </v>
   <v type="int" >        8       20       22       22       24 </v>
   <v type="int" >       16       22       22       24       25 </v>
   <v type="int" >       16       20       21       22       24 </v>
   <v type="int" >        8       21       22       24       24 </v>
   <v type="int" >        4       22       24       24       24 </v>
   <v type="int" >       16       22       24       24       25 </v>
   <v type="int" >        4       20       20       21       24 </v>
   <v type="int" >       12       20       22       24       24 </v>
   <v type="int" >        8       20       20       22       24 </v>
   <v type="int" >        4       20       21       24       24 </v>
   <v type="int" >        4       13       20       20       22 </v>
   <v type="int" >        8       13       20       21       22 </v>
   <v type="int" >        4       13       13       15       22 </v>
   <v type="int" >        4       13       13       21       22 </v>
   <v type="int" >        4        6        7       14       15 </v>
   <v type="int" >        4        6       13       14       15 </v>
   <v type="int" >        4        6       13       13       15 </v>
   <v type="int" >        4        6        7        7       15 </v>
   <v type="int" >        4        3        6        7       15 </v>
   <v type="int" >        4        3        6       13       15 </v>
   <v type="int" >        8       21       22       22       25 </v>
   <v type="int" >       12       21       22       24       25 </v>
   <v type="int" >        4       21       23       24       25 </v>
   <v type="int" >        4       19       20       22       24 </v>
   <v type="int" >        4       19       21       22       24 </v>
   <v type="int" >        8       19       21       23       24 </v>
   <v type="int" >        8       19       20       21       24 </v>
   <v type="int" >        4       19       19       21       24 </v>
   <v type="int" >        4       19       19       23       24 </v>
   <v type="int" >        4       11       13       20       21 </v>
   <v type="int" >        4       11       19       20       21 </v>
   <v type="int" >        4       11       19       19       21 </v>
   <v type="int" >        4       11       13       13       21 </v>
   <v type="int" >        4       10       11       13       21 </v>
   <v type="int" >        4       10       11       19       21 </v>
   <v type="int" >        4        2        6       13       13 </v>
   <v type="int" >        4        2       11       13       13 </v>
   <v type="int" >       12        2        3       10       13 </v>
   <v type="int" >        4        2       10       10       13 </v>
   <v type="int" >        4       18       19       21       23 </v>
   <v type="int" >        4       18       19       19       23 </v>
   <v type="int" >        4       11       18       19       23 </v>
   <v type="int" >        4        8       11       19       19 </v>
   <v type="int" >        4        8       18       19       19 </v>
   <v type="int" >        4        2        8       10       19 </v>
   <v type="int" >        4        2        8       11       19 </v>
   <v type="int" >       16        2        8       10       11 </v>
   <v type="int" >        4        8        8       10       11 </v>
   <v type="int" >       12        2        8        8       10 </v>
   <v type="int" >        8        2        8       10       10 </v>
   <v type="int" >        4        8       10       10       11 </v>
   <v type="int" >        4        1        8       11       18 </v>
   <v type="int" >        4        2        8        8        8 </v>
   <v type="int" >        8        2        2        8       10 </v>
   <v type="int" >        4        2        2        3       10 </v>
   <v type="int" >        4        3        4        7       17 </v>
   <v type="int" >        4        4        7       16       17 </v>
   <v type="int" >        4        7        7        7        9 </v>
   <v type="int" >        4        4        7        7       14 </v>
   <v type="int" >        4        7        7        7       14 </v>
   <v type="int" >       12        3        4       12       13 </v>
   <v type="int" >        4        4       12       13       20 </v>
   <v type="int" >        4        4       13       14       20 </v>
   <v type="int" >        4        3       10       12       19 </v>
   <v type="int" >        4        3       12       13       19 </v>
   <v type="int" >        4       12       13       19       21 </v>
   <v type="int" >        4       12       19       20       21 </v>
   <v type="int" >        4       10       13       19       19 </v>
   <v type="int" >        8       13       13       19       20 </v>
   <v type="int" >        4       10       11       13       13 </v>
   <v type="int" >        4       10       12       13       13 </v>
   <v type="int" >        4       12       13       13       14 </v>
   <v type="int" >        4       13       13       14       20 </v>
   <v type="int" >        4        3        7       10       12 </v>
   <v type="int" >        4        7       10       12       13 </v>
   <v type="int" >        8        7       12       13       14 </v>
   <v type="int" >        8        3        4        7       12 </v>
   <v type="int" >        4        7        7       12       14 </v>
   <v type="int" >        4        7        9       15       16 </v>
   <v type="int" >       12        7        9       15       15 </v>
   <v type="int" >        8        7        7       14       15 </v>
   <v type="int" >        4        7       14       15       22 </v>
   <v type="int" >        4        7       15       15       22 </v>
   <v type="int" >        4        7       13       14       21 </v>
   <v type="int" >        4        7       14       15       21 </v>
   <v type="int" >        4       14       20       21       24 </v>
   <v type="int" >        4       14       21       22       24 </v>
   <v type="int" >        4       13       19       20       23 </v>
   <v type="int" >        4       13       20       21       23 </v>
   <v type="int" >        4       20       23       24       24 </v>
   <v type="int" >        4       19       19       21       21 </v>
   <v type="int" >        4       19       20       21       21 </v>
   <v type="int" >        4       20       21       21       22 </v>
   <v type="int" >        4       21       21       22       24 </v>
   <v type="int" >        4       13       15       19       20 </v>
   <v type="int" >        4       15       19       20       21 </v>
   <v type="int" >        8       13       14       15       20 </v>
   <v type="int" >        4       14       15       15       20 </v>
   <v type="int" >        4       15       15       20       22 </v>
   <v type="int" >        4        7        9       13       14 </v>
   <v type="int" >        4        9       13       14       15 </v>
   <v type="int" >        8        9       14       15       15 </v>
   <v type="int" >        8        7        7        9       14 </v>
   <v type="int" >        4        9       15       15       22 </v>
   <v type="int" >        4       15       22       22       25 </v>
   <v type="int" >        4       15       21       22       24 </v>
   <v type="int" >        4       15       22       22       24 </v>
   <v type="int" >        8       22       24       24       26 </v>
   <v type="int" >        8       22       24       25       26 </v>
   <v type="int" >        4       21       23       24       24 </v>
   <v type="int" >        4       21       24       24       24 </v>
   <v type="int" >        8       24       24       24       26 </v>
   <v type="int" >        4       23       24       24       24 </v>
   <v type="int" >        4       24       24       24       25 </v>
   <v type="int" >       20       24       24       25       26 </v>
   <v type="int" >        4       21       22       23       24 </v>
   <v type="int" >        4       22       23       24       24 </v>
   <v type="int" >       12       21       22       22       24 </v>
   <v type="int" >        4       22       22       22       24 </v>
   <v type="int" >        4       15       15       21       22 </v>
   <v type="int" >        4       15       22       22       22 </v>
   <v type="int" >        4       15       15       15       22 </v>
   <v type="int" >        4       14       15       22       22 </v>
   <v type="int" >        4        7       15       15       15 </v>
   <v type="int" >        4        4        7        7       15 </v>
   <v type="int" >        4        4        7       14       15 </v>
   <v type="int" >        4       22       24       25       25 </v>
   <v type="int" >        8       24       25       25       26 </v>
   <v type="int" >        6       25       25       26       26 </v>
   <v type="int" >       12       24       25       26       26 </v>
   <v type="int" >        4       24       24       26       26 </v>
   <v type="int" >        8       21       24       24       25 </v>
   <v type="int" >        4       20       21       22       25 </v>
   <v type="int" >        4       20       21       24       25 </v>
   <v type="int" >        4       13       15       22       22 </v>
   <v type="int" >        4       13       21       22       22 </v>
   <v type="int" >        4       12       13       14       22 </v>
   <v type="int" >        4       12       13       20       22 </v>
   <v type="int" >        4        3        7       14       15 </v>
   <v type="int" >        4        3       13       14       15 </v>
   <v type="int" >        4       23       24       25       26 </v>
   <v type="int" >        4       23       24       24       26 </v>
   <v type="int" >        4       21       23       24       26 </v>
   <v type="int" >        4       19       21       24       24 </v>
   <v type="int" >        4       19       23       24       24 </v>
   <v type="int" >        4       13       19       20       24 </v>
   <v type="int" >        4       13       19       21       24 </v>
   <v type="int" >        4       10       13       20       21 </v>
   <v type="int" >        4       10       19       20       21 </v>
   <v type="int" >        4        3       10       12       20 </v>
   <v type="int" >        4        3       10       13       20 </v>
   <v type="int" >        8        3       10       12       13 </v>
   <v type="int" >        4       10       10       12       13 </v>
   <v type="int" >        8        3       10       10       12 </v>
   <v type="int" >        8        3       10       12       12 </v>
   <v type="int" >        4       10       12       12       13 </v>
   <v type="int" >        4       11       19       21       23 </v>
   <v type="int" >        4        6       11       13       21 </v>
   <v type="int" >        4        2       10       13       19 </v>
   <v type="int" >        4        2       11       13       19 </v>
   <v type="int" >        8        2        6       11       13 </v>
   <v type="int" >        4        2        6        6       13 </v>
   <v type="int" >        4        3       10       10       11 </v>
   <v type="int" >        4        3       11       13       13 </v>
   <v type="int" >        4        2        2        6       10 </v>
   <v type="int" >        4        6       10       12       13 </v>
   <v type="int" >        4        3        6       10       12 </v>
   <v type="int" >        4        2        3        3       10 </v>
   <v type="int" >        4        3        3       10       12 </v>
   <v type="int" >        4        3        3        4       12 </v>
   <v type="int" >        4        3        4        7       16 </v>
   <v type="int" >        4        6        7        7        7 </v>
   <v type="int" >        4        6        6        7       13 </v>
   <v type="int" >        8        3        7        7       14 </v>
   <v type="int" >        8        3        7       13       14 </v>
   <v type="int" >        4        3       12       14       20 </v>
   <v type="int" >        4        3       13       14       20 </v>
   <v type="int" >        4        4       12       12       20 </v>
   <v type="int" >        4        4       12       14       20 </v>
   <v type="int" >        4       12       14       20       22 </v>
   <v type="int" >        4       12       20       20       22 </v>
   <v type="int" >        4       12       13       14       21 </v>
   <v type="int" >        4       12       14       20       21 </v>
   <v type="int" >        4       14       21       22       22 </v>
   <v type="int" >        4       13       13       15       20 </v>
   <v type="int" >        4       14       15       20       20 </v>
   <v type="int" >        4       15       20       20       22 </v>
   <v type="int" >        4       12       13       14       14 </v>
   <v type="int" >        4       13       14       14       20 </v>
   <v type="int" >        2       14       14       20       20 </v>
   <v type="int" >        2       12       12       14       14 </v>
   <v type="int" >        8        4        7       12       12 </v>
   <v type="int" >        4        7       12       12       14 </v>
   <v type="int" >        4        3        6        7       12 </v>
   <v type="int" >        4        6        7       12       13 </v>
   <v type="int" >        4        6        7       15       16 </v>
   <v type="int" >        8        6        7       13       15 </v>
   <v type="int" >        4        6       13       15       21 </v>
   <v type="int" >        4        7       13       14       22 </v>
   <v type="int" >        4        7       13       15       22 </v>
   <v type="int" >        4       13       20       22       24 </v>
   <v type="int" >        4       13       21       22       24 </v>
   <v type="int" >        4       14       20       20       24 </v>
   <v type="int" >        4       14       20       22       24 </v>
   <v type="int" >        4       20       22       24       25 </v>
   <v type="int" >        4       20       24       24       25 </v>
   <v type="int" >        6       22       22       24       24 </v>
   <v type="int" >        4       20       21       22       22 </v>
   <v type="int" >        2       20       20       22       22 </v>
   <v type="int" >        4        7        7       13       14 </v>
   <v type="int" >        4        3        7       13       13 </v>
   <v type="int" >        4       15       21       22       25 </v>
   <v type="int" >        4       21       24       25       26 </v>
   <v type="int" >        4       24       26       26       26 </v>
   <v type="int" >        6       24       24       25       25 </v>
   <v type="int" >        4        4        7       13       15 </v>
   <v type="int" >        4        4       13       14       15 </v>
   <v type="int" >        8        4       12       12       13 </v>
   <v type="int" >        4       25       26       26       26 </v>
   <v type="int" >        2       26       26       26       26 </v>
   <v type="int" >        4        4       12       12       14 </v>
   <v type="int" >        4       12       12       12       14 </v>
   <v type="int" >        8        4       12       12       12 </v>
   <v type="int" >        4        3        4        4       12 </v>
   <v type="int" >        4        4        4       12       12 </v>
   <v type="int" >        4        1        5        8       11 </v>
   <v type="int" >        4        1        2        6       11 </v>
   <v type="int" >        4        2        8       10       13 </v>
   <v type="int" >        4        2        8       11       13 </v>
   <v type="int" >        4        2        3        7       13 </v>
   <v type="int" >        4        2        6        7       13 </v>
   <v type="int" >        4        3       10       12       14 </v>
   <v type="int" >        4        3       10       13       14 </v>
   <v type="int" >        4        3        4        6       13 </v>
   <v type="int" >        4        4        6        7       13 </v>
   <v type="int" >        4        3       10       11       12 </v>
   <v type="int" >        4        3       11       12       13 </v>
   <v type="int" >        4        2        2        3       11 </v>
   <v type="int" >        6        2        2        8        8 </v>
   <v type="int" >        6        1        1        8        8 </v>
   <v type="int" >        4        5        5        5        8 </v>
   <v type="int" >        4        6       11       13       15 </v>
   <v type="int" >        4        6        7        9       15 </v>
   <v type="int" >        4        7       13       15       15 </v>
   <v type="int" >        4        7        7        7       15 </v>
   <v type="int" >        4        7       13       13       14 </v>
   <v type="int" >        4        3        7        7       13 </v>
   <v type="int" >        4        6       10       13       13 </v>
   <v type="int" >        4        2        6       10       10 </v>
   <v type="int" >        4        3        6       10       10 </v>
   <v type="int" >        4        2        2       10       11 </v>
   <v type="int" >        2        2        2       10       10 </v>
   <v type="int" >        4        1        8        8       10 </v>
   <v type="int" >        4        1        2        8       10 </v>
   <v type="int" >        4        2        3        8       10 </v>
   <v type="int" >        4        3        8       10       10 </v>
   <v type="int" >        4        4        7        9       14 </v>
   <v type="int" >        4        7       12       13       15 </v>
   <v type="int" >        4        7       12       14       15 </v>
   <v type="int" >        4        3        7       12       12 </v>
   <v type="int" >        4        3        3       10       13 </v>
   <v type="int" >        4        3        3       12       13 </v>
   <v type="int" >        2        3        3       12       12 </v>
   <v type="int" >        2        3        3       10       10 </v>
   <v type="int" >        4        2       10       10       12 </v>
   <v type="int" >        4        2        3       10       12 </v>
   <v type="int" >        4        3        4       10       12 </v>
   <v type="int" >        4        4       10       12       12 </v>
   <v type="int" >        4        4        4       12       14 </v>
   <v type="int" >        4        3       12       12       12 </v>
   <v type="int" >        4        3        4       12       12 </v>
   <v type="int" >        4        1        5        5        5 </v>
   <v type="int" >        2        5        5        5        5 </v>
  </varray>
  <i name="volumeweight">      0.00032552 </i>
 </kpoints>
 <parameters>
  <separator name="general" >
   <i type="string" name="SYSTEM">Fe BCC</i>
   <i type="logical" name="LCOMPAT"> F  </i>
  </separator>
  <separator name="electronic" >
   <i type="string" name="PREC">accura</i>
   <i name="ENMAX">    400.00000000</i>
   <i name="ENAUG">    511.36800000</i>
   <i name="EDIFF">      0.00000100</i>
   <i type="int" name="IALGO">    38</i>
   <i type="int" name="IWAVPR">    10</i>
   <i type="int" name="NBANDS">    12</i>
   <i name="NELECT">      8.00000000</i>
   <i type="int" name="TURBO">     0</i>
   <i type="int" name="IRESTART">     0</i>
   <i type="int" name="NREBOOT">     0</i>
   <i type="int" name="NMIN">     0</i>
   <i name="EREF">      0.00000000</i>
   <separator name="electronic smearing" >
    <i type="int" name="ISMEAR">    -5</i>
    <i name="SIGMA">      0.20000000</i>
    <i name="KSPACING">      0.50000000</i>
    <i type="logical" name="KGAMMA"> T  </i>
   </separator>
   <separator name="electronic projectors" >
    <i type="logical" name="LREAL"> F  </i>
    <v name="ROPT">      0.00000000</v>
    <i type="int" name="LMAXPAW">  -100</i>
    <i type="int" name="LMAXMIX">     2</i>
    <i type="logical" name="NLSPLINE"> F  </i>
   </separator>
   <separator name="electronic startup" >
    <i type="int" name="ISTART">     0</i>
    <i type="int" name="ICHARG">     2</i>
    <i type="int" name="INIWAV">     1</i>
   </separator>
   <separator name="electronic spin" >
    <i type="int" name="ISPIN">     2</i>
    <i type="logical" name="LNONCOLLINEAR"> F  </i>
    <v name="MAGMOM">      4.00000000</v>
    <i name="NUPDOWN">     -1.00000000</i>
    <i type="logical" name="LSORBIT"> F  </i>
    <v name="SAXIS">      0.00000000      0.00000000      1.00000000</v>
    <i type="logical" name="LSPIRAL"> F  </i>
    <v name="QSPIRAL">      0.00000000      0.00000000      0.00000000</v>
    <i type="logical" name="LZEROZ"> F  </i>
   </separator>
   <separator name="electronic exchange-correlation" >
    <i type="logical" name="LASPH"> F  </i>
    <i type="logical" name="LMETAGGA"> F  </i>
   </separator>
   <separator name="electronic convergence" >
    <i type="int" name="NELM">    60</i>
    <i type="int" name="NELMDL">    -5</i>
    <i type="int" name="NELMIN">     2</i>
    <i name="ENINI">    400.00000000</i>
    <separator name="electronic convergence detail" >
     <i type="logical" name="LDIAG"> T  </i>
     <i type="logical" name="LSUBROT"> F  </i>
     <i name="WEIMIN">      0.00000000</i>
     <i name="EBREAK">      0.00000002</i>
     <i name="DEPER">      0.30000000</i>
     <i type="int" name="NRMM">     4</i>
     <i name="TIME">      0.40000000</i>
    </separator>
   </separator>
   <separator name="electronic mixer" >
    <i name="AMIX">      0.40000000</i>
    <i name="BMIX">      1.00000000</i>
    <i name="AMIN">      0.10000000</i>
    <i name="AMIX_MAG">      1.60000000</i>
    <i name="BMIX_MAG">      1.00000000</i>
    <separator name="electronic mixer details" >
     <i type="int" name="IMIX">     4</i>
     <i type="logical" name="MIXFIRST"> F  </i>
     <i type="int" name="MAXMIX">   -45</i>
     <i name="WC">    100.00000000</i>
     <i type="int" name="INIMIX">     1</i>
     <i type="int" name="MIXPRE">     1</i>
     <i type="int" name="MREMOVE">     5</i>
    </separator>
   </separator>
   <separator name="electronic dipolcorrection" >
    <i type="logical" name="LDIPOL"> F  </i>
    <i type="logical" name="LMONO"> F  </i>
    <i type="int" name="IDIPOL">     0</i>
    <i name="EPSILON">      1.00000000</i>
    <v name="DIPOL">   -100.00000000   -100.00000000   -100.00000000</v>
    <i name="EFIELD">      0.00000000</i>
   </separator>
  </separator>
  <separator name="grids" >
   <i type="int" name="NGX">    16</i>
   <i type="int" name="NGY">    16</i>
   <i type="int" name="NGZ">    16</i>
   <i type="int" name="NGXF">    32</i>
   <i type="int" name="NGYF">    32</i>
   <i type="int" name="NGZF">    32</i>
   <i type="logical" name="ADDGRID"> F  </i>
  </separator>
  <separator name="ionic" >
   <i type="int" name="NSW">     0</i>
   <i type="int" name="IBRION">    -1</i>
   <i type="int" name="ISIF">     2</i>
   <i name="PSTRESS">      0.00000000</i>
   <i name="EDIFFG">      0.00001000</i>
   <i type="int" name="NFREE">     0</i>
   <i name="POTIM">      0.50000000</i>
   <i name="SMASS">     -3.00000000</i>
   <i name="SCALEE">      1.00000000</i>
  </separator>
  <separator name="ionic md" >
   <i name="TEBEG">      0.00010000</i>
   <i name="TEEND">      0.00010000</i>
   <i type="int" name="NBLOCK">     1</i>
   <i type="int" name="KBLOCK">     1</i>
   <i type="int" name="NPACO">   256</i>
   <i name="APACO">     16.00000000</i>
  </separator>
  <separator name="symmetry" >
   <i type="int" name="ISYM">     2</i>
   <i name="SYMPREC">      0.00001000</i>
  </separator>
  <separator name="dos" >
   <i type="logical" name="LORBIT"> F  </i>
   <v name="RWIGS">     -1.00000000</v>
   <i type="int" name="NEDOS">   301</i>
   <i name="EMIN">     10.00000000</i>
   <i name="EMAX">    -10.00000000</i>
   <i name="EFERMI">      0.00000000</i>
  </separator>
  <separator name="writing" >
   <i type="int" name="NWRITE">     2</i>
   <i type="logical" name="LWAVE"> T  </i>
   <i type="logical" name="LCHARG"> T  </i>
   <i type="logical" name="LPARD"> F  </i>
   <i type="logical" name="LVTOT"> F  </i>
   <i type="logical" name="LVHAR"> F  </i>
   <i type="logical" name="LELF"> F  </i>
   <i type="logical" name="LOPTICS"> F  </i>
   <v name="STM">      0.00000000      0.00000000      0.00000000      0.00000000      0.00000000      0.00000000      0.00000000</v>
  </separator>
  <separator name="performance" >
   <i type="int" name="NPAR">     4</i>
   <i type="int" name="NSIM">     4</i>
   <i type="int" name="NBLK">    -1</i>
   <i type="logical" name="LPLANE"> T  </i>
   <i type="logical" name="LSCALAPACK"> F  </i>
   <i type="logical" name="LSCAAWARE"> F  </i>
   <i type="logical" name="LSCALU"> F  </i>
   <i type="logical" name="LASYNC"> F  </i>
   <i type="logical" name="LORBITALREAL"> F  </i>
  </separator>
  <separator name="miscellaneous" >
   <i type="int" name="IDIOT">     3</i>
   <i type="logical" name="LMUSIC"> F  </i>
   <v name="POMASS">     55.84700000</v>
   <v name="DARWINR">      0.00000000</v>
   <v name="DARWINV">      1.00000000</v>
   <i type="logical" name="LCORR"> T  </i>
  </separator>
  <i type="logical" name="GGA_COMPAT"> T  </i>
  <i type="logical" name="LBERRY"> F  </i>
  <i type="int" name="ICORELEVEL">     0</i>
  <i type="logical" name="LDAU"> F  </i>
  <i type="int" name="I_CONSTRAINED_M">     0</i>
  <separator name="electronic exchange-correlation" >
   <i type="string" name="GGA">--</i>
   <i type="int" name="VOSKOWN">     0</i>
   <i type="logical" name="LHFCALC"> F  </i>
   <i type="string" name="PRECFOCK"></i>
   <i type="logical" name="LSYMGRAD"> F  </i>
   <i type="logical" name="LHFONE"> F  </i>
   <i type="logical" name="LRHFCALC"> F  </i>
   <i type="logical" name="LTHOMAS"> F  </i>
   <i type="logical" name="LMODELHF"> F  </i>
   <i name="ENCUT4O">     -1.00000000</i>
   <i type="int" name="EXXOEP">     0</i>
   <i type="int" name="FOURORBIT">     0</i>
   <i name="AEXX">      0.00000000</i>
   <i name="HFALPHA">      0.00000000</i>
   <i name="MCALPHA">      0.00000000</i>
   <i name="ALDAX">      1.00000000</i>
   <i name="AGGAX">      1.00000000</i>
   <i name="ALDAC">      1.00000000</i>
   <i name="AGGAC">      1.00000000</i>
   <i type="int" name="NKREDX">     1</i>
   <i type="int" name="NKREDY">     1</i>
   <i type="int" name="NKREDZ">     1</i>
   <i type="logical" name="SHIFTRED"> F  </i>
   <i type="logical" name="ODDONLY"> F  </i>
   <i type="logical" name="EVENONLY"> F  </i>
   <i type="int" name="LMAXFOCK">     0</i>
   <i type="int" name="NMAXFOCKAE">     0</i>
   <i type="logical" name="LFOCKAEDFT"> F  </i>
   <i name="HFSCREEN">      0.00000000</i>
   <i name="HFSCREENC">      0.00000000</i>
   <i type="int" name="NBANDSGWLOW">     0</i>
  </separator>
  <separator name="vdW DFT" >
   <i type="logical" name="LUSE_VDW"> F  </i>
   <i name="Zab_VDW">     -0.84910000</i>
   <i name="PARAM1">      0.12340000</i>
   <i name="PARAM2">      1.00000000</i>
   <i name="PARAM3">      0.00000000</i>
  </separator>
  <separator name="model GW" >
   <i type="int" name="MODEL_GW">     0</i>
   <i name="MODEL_EPS0">      5.90490000</i>
   <i name="MODEL_ALPHA">      1.00000000</i>
  </separator>
  <separator name="linear response parameters" >
   <i type="logical" name="LEPSILON"> F  </i>
   <i type="logical" name="LRPA"> F  </i>
   <i type="logical" name="LNABLA"> F  </i>
   <i type="logical" name="LVEL"> F  </i>
   <i type="int" name="KINTER">     0</i>
   <i name="CSHIFT">      0.10000000</i>
   <i name="OMEGAMAX">     -1.00000000</i>
   <i name="DEG_THRESHOLD">      0.00200000</i>
  </separator>
  <separator name="orbital magnetization" >
   <i type="logical" name="NUCIND"> F  </i>
   <v name="MAGPOS">      0.00000000      0.00000000      0.00000000</v>
   <i type="logical" name="LNICSALL"> T  </i>
   <i type="logical" name="ORBITALMAG"> F  </i>
   <i type="logical" name="LMAGBLOCH"> F  </i>
   <i type="logical" name="LCHIMAG"> F  </i>
   <i type="logical" name="LGAUGE"> T  </i>
   <i type="int" name="MAGATOM">     0</i>
   <v name="MAGDIPOL">      0.00000000      0.00000000      0.00000000</v>
   <v name="AVECCONST">      0.00000000      0.00000000      0.00000000</v>
  </separator>
  <separator name="response functions" >
   <i type="logical" name="LADDER"> F  </i>
   <i type="logical" name="LFXC"> F  </i>
   <i type="logical" name="LHARTREE"> T  </i>
   <i type="int" name="IBSE">     0</i>
   <v type="int" name="KPOINT">    -1     0     0     0</v>
   <i type="logical" name="LTCTE"> F  </i>
   <i type="logical" name="LTETE"> F  </i>
   <i type="logical" name="LTRIPLET"> F  </i>
   <i type="logical" name="LFXCEPS"> F  </i>
   <i type="logical" name="LFXHEG"> F  </i>
   <i type="int" name="NATURALO">     0</i>
   <i type="logical" name="L2ORDER"> F  </i>
   <i type="logical" name="LUSEW"> F  </i>
   <i name="ENCUTGW">     -2.00000000</i>
   <i name="ENCUTGWSOFT">     -2.00000000</i>
   <i name="ENCUTLF">     -1.00000000</i>
   <i type="int" name="LMAXMP2">    -1</i>
   <i name="SCISSOR">      0.00000000</i>
   <i type="int" name="NOMEGA">     0</i>
   <i type="int" name="NOMEGAR">     0</i>
   <i type="int" name="NBANDSGW">    -1</i>
   <i type="int" name="NBANDSO">    -1</i>
   <i type="int" name="NBANDSV">    -1</i>
   <i type="int" name="NELM">     1</i>
   <i type="int" name="NELMHF">     1</i>
   <i type="int" name="DIM">     3</i>
   <i type="int" name="ANTIRES">     0</i>
   <i name="OMEGAMAX">    -30.00000000</i>
   <i name="OMEGAMIN">    -30.00000000</i>
   <i name="OMEGATL">   -200.00000000</i>
   <i type="int" name="OMEGAGRID">     0</i>
   <i name="CSHIFT">     -0.10000000</i>
   <i type="logical" name="SELFENERGY"> F  </i>
   <i type="logical" name="LSPECTRAL"> F  </i>
   <i type="logical" name="LSPECTRALGW"> F  </i>
   <i type="logical" name="LSINGLES"> F  </i>
   <i type="logical" name="LFERMIGW"> F  </i>
   <i type="logical" name="ODDONLYGW"> F  </i>
   <i type="logical" name="EVENONLYGW"> F  </i>
   <i type="int" name="NKREDLFX">     1</i>
   <i type="int" name="NKREDLFY">     1</i>
   <i type="int" name="NKREDLFZ">     1</i>
   <i type="int" name="MAXMEM">  1800</i>
   <i type="int" name="TELESCOPE">     0</i>
   <i type="int" name="TAUPAR">     1</i>
   <i type="int" name="OMEGAPAR">    -1</i>
   <i name="LAMBDA">      1.00000000</i>
  </separator>
  <separator name="External order field" >
   <i name="OFIELD_KAPPA">      0.00000000</i>
   <v name="OFIELD_K">      0.00000000      0.00000000      0.00000000</v>
   <i name="OFIELD_Q6_NEAR">      0.00000000</i>
   <i name="OFIELD_Q6_FAR">      0.00000000</i>
   <i name="OFIELD_A">      0.00000000</i>
  </separator>
 </parameters>
 <atominfo>
  <atoms>       1 </atoms>
  <types>       1 </types>
  <array name="atoms" >
   <dimension dim="1">ion</dimension>
   <field type="string">element</field>
   <field type="int">atomtype</field>
   <set>
    <rc><c>Fe</c><c>   1</c></rc>
   </set>
  </array>
  <array name="atomtypes" >
   <dimension dim="1">type</dimension>
   <field type="int">atomspertype</field>
   <field type="string">element</field>
   <field>mass</field>
   <field>valence</field>
   <field type="string">pseudopotential</field>
   <set>
    <rc><c>   1</c><c>Fe</c><c>     55.84700000</c><c>      8.00000000</c><c>  PAW Fe 03Mar1998                      </c></rc>
   </set>
  </array>
 </atominfo>
 <structure name="initialpos" >
  <crystal>
   <varray name="basis" >
    <v>      -1.35000000       1.35000000       1.35000000 </v>
    <v>       1.35000000      -1.35000000       1.35000000 </v>
    <v>       1.35000000       1.35000000      -1.35000000 </v>
   </varray>
   <i name="volume">      9.84150000 </i>
   <varray name="rec_basis" >
    <v>       0.00000000       0.37037037       0.37037037 </v>
    <v>       0.37037037       0.00000000       0.37037037 </v>
    <v>       0.37037037       0.37037037       0.00000000 </v>
   </varray>
  </crystal>
  <varray name="positions" >
   <v>       0.00000000       0.00000000       0.00000000 </v>
  </varray>
 </structure>
 <calculation>
  <scstep>
   <time name="dav">    3.55    3.56</time>
   <time name="total">    3.65    3.66</time>
   <energy>
    <i name="alphaZ">     68.05510949 </i>
    <i name="ewald">   -621.08666213 </i>
    <i name="hartreedc">   -100.24298490 </i>
    <i name="XCdc">      6.89981521 </i>
    <i name="pawpsdc">    552.76102510 </i>
    <i name="pawaedc">   -562.19386350 </i>
    <i name="eentropy">      0.00000000 </i>
    <i name="bandstr">     75.18830816 </i>
    <i name="atom">    597.35192723 </i>
    <i name="e_fr_energy">     16.73267467 </i>
    <i name="e_wo_entrp">     16.73267467 </i>
    <i name="e_0_energy">     16.73267467 </i>
   </energy>
  </scstep>
  <scstep>
   <time name="dav">    3.42    3.30</time>
   <time name="total">    3.52    3.40</time>
   <energy>
    <i name="e_fr_energy">     -9.04569625 </i>
    <i name="e_wo_entrp">     -9.04569625 </i>
    <i name="e_0_energy">     -9.04569625 </i>
   </energy>
  </scstep>
  <scstep>
   <time name="dav">    3.65    3.55</time>
   <time name="total">    3.72    3.61</time>
   <energy>
    <i name="e_fr_energy">     -9.65939431 </i>
    <i name="e_wo_entrp">     -9.65939431 </i>
    <i name="e_0_energy">     -9.65939431 </i>
   </energy>
  </scstep>
  <scstep>
   <time name="dav">    3.62    3.51</time>
   <time name="total">    3.68    3.57</time>
   <energy>
    <i name="e_fr_energy">     -9.66162731 </i>
    <i name="e_wo_entrp">     -9.66162731 </i>
    <i name="e_0_energy">     -9.66162731 </i>
   </energy>
  </scstep>
  <scstep>
   <time name="dav">    3.58    3.60</time>
   <time name="total">    3.73    3.75</time>
   <energy>
    <i name="e_fr_energy">     -9.66164098 </i>
    <i name="e_wo_entrp">     -9.66164098 </i>
    <i name="e_0_energy">     -9.66164098 </i>
   </energy>
  </scstep>
  <scstep>
   <time name="dav">    3.53    3.51</time>
   <time name="total">    3.68    3.66</time>
   <energy>
    <i name="e_fr_energy">     -9.24878064 </i>
    <i name="e_wo_entrp">     -9.24878064 </i>
    <i name="e_0_energy">     -9.24878064 </i>
   </energy>
  </scstep>
  <scstep>
   <time name="dav">    4.05    3.98</time>
   <time name="total">    4.21    4.13</time>
   <energy>
    <i name="e_fr_energy">     -9.22888315 </i>
    <i name="e_wo_entrp">     -9.22888315 </i>
    <i name="e_0_energy">     -9.22888315 </i>
   </energy>
  </scstep>
  <scstep>
   <time name="dav">    3.76    3.52</time>
   <time name="total">    3.89    3.64</time>
   <energy>
    <i name="e_fr_energy">     -9.21495796 </i>
    <i name="e_wo_entrp">     -9.21495796 </i>
    <i name="e_0_energy">     -9.21495796 </i>
   </energy>
  </scstep>
  <scstep>
   <time name="dav">    4.56    4.27</time>
   <time name="total">    4.71    4.40</time>
   <energy>
    <i name="e_fr_energy">     -9.20640824 </i>
    <i name="e_wo_entrp">     -9.20640824 </i>
    <i name="e_0_energy">     -9.20640824 </i>
   </energy>
  </scstep>
  <scstep>
   <time name="dav">    4.58    3.57</time>
   <time name="total">    4.72    3.66</time>
   <energy>
    <i name="e_fr_energy">     -9.20647557 </i>
    <i name="e_wo_entrp">     -9.20647557 </i>
    <i name="e_0_energy">     -9.20647557 </i>
   </energy>
  </scstep>
  <scstep>
   <time name="dav">    3.29    2.12</time>
   <time name="total">    3.44    2.25</time>
   <energy>
    <i name="e_fr_energy">     -9.20670197 </i>
    <i name="e_wo_entrp">     -9.20670197 </i>
    <i name="e_0_energy">     -9.20670197 </i>
   </energy>
  </scstep>
  <scstep>
   <time name="dav">    3.13    2.91</time>
   <time name="total">    3.29    3.06</time>
   <energy>
    <i name="e_fr_energy">     -9.20674096 </i>
    <i name="e_wo_entrp">     -9.20674096 </i>
    <i name="e_0_energy">     -9.20674096 </i>
   </energy>
  </scstep>
  <scstep>
   <time name="dav">    1.97    1.86</time>
   <time name="total">    2.10    1.97</time>
   <energy>
    <i name="e_fr_energy">     -9.20671325 </i>
    <i name="e_wo_entrp">     -9.20671325 </i>
    <i name="e_0_energy">     -9.20671325 </i>
   </energy>
  </scstep>
  <scstep>
   <time name="dav">    1.72    1.65</time>
   <time name="total">    1.86    1.77</time>
   <energy>
    <i name="e_fr_energy">     -9.20669997 </i>
    <i name="e_wo_entrp">     -9.20669997 </i>
    <i name="e_0_energy">     -9.20669997 </i>
   </energy>
  </scstep>
  <scstep>
   <time name="dav">    2.10    1.92</time>
   <time name="total">    2.23    2.04</time>
   <energy>
    <i name="e_fr_energy">     -9.20669796 </i>
    <i name="e_wo_entrp">     -9.20669796 </i>
    <i name="e_0_energy">     -9.20669796 </i>
   </energy>
  </scstep>
  <scstep>
   <time name="dav">    1.75    1.57</time>
   <time name="total">    1.85    1.66</time>
   <energy>
    <i name="alphaZ">     68.05510949 </i>
    <i name="ewald">   -621.08666213 </i>
    <i name="hartreedc">    -84.14805765 </i>
    <i name="XCdc">      4.72766360 </i>
    <i name="pawpsdc">    787.41865612 </i>
    <i name="pawaedc">   -798.62337375 </i>
    <i name="eentropy">      0.00000000 </i>
    <i name="bandstr">     37.09803927 </i>
    <i name="atom">    597.35192723 </i>
    <i name="e_fr_energy">     -9.20669783 </i>
    <i name="e_wo_entrp">     -9.20669783 </i>
    <i name="e_0_energy">     -9.20669783 </i>
   </energy>
  </scstep>
  <structure>
   <crystal>
    <varray name="basis" >
     <v>      -1.35000000       1.35000000       1.35000000 </v>
     <v>       1.35000000      -1.35000000       1.35000000 </v>
     <v>       1.35000000       1.35000000      -1.35000000 </v>
    </varray>
    <i name="volume">      9.84150000 </i>
    <varray name="rec_basis" >
     <v>       0.00000000       0.37037037       0.37037037 </v>
     <v>       0.37037037       0.00000000       0.37037037 </v>
     <v>       0.37037037       0.37037037       0.00000000 </v>
    </varray>
   </crystal>
   <varray name="positions" >
    <v>       0.00000000       0.00000000       0.00000000 </v>
   </varray>
  </structure>
  <varray name="forces" >
   <v>       0.00000000       0.00000000      -0.00000000 </v>
  </varray>
  <varray name="stress" >
   <v>     145.15088841       0.00000000      -0.00000000 </v>
   <v>       0.00000000     145.15088841       0.00000000 </v>
   <v>      -0.00000000       0.00000000     145.15088841 </v>
  </varray>
  <energy>
   <i name="e_fr_energy">     -9.20669783 </i>
   <i name="e_wo_entrp">     -9.20669783 </i>
   <i name="e_0_energy">      0.00000000 </i>
  </energy>
  <time name="totalsc">   54.72   50.76</time>
  <eigenvalues>
   <array>
    <dimension dim="1">band</dimension>
    <dimension dim="2">kpoint</dimension>
    <dimension dim="3">spin</dimension>
    <field>eigene</field>
    <field>occ</field>
    <set>
     <set comment="spin 1">
      <set comment="kpoint 1">
       <r>   -1.0049    1.0000 </r>
       <r>    4.4812    1.0000 </r>
       <r>    4.4812    1.0000 </r>
       <r>    5.5059    1.0000 </r>
       <r>    6.3456    1.0000 </r>
       <r>    6.3456    1.0026 </r>
       <r>   30.2361    0.0000 </r>
       <r>   30.2361    0.0000 </r>
       <r>   34.5589    0.0000 </r>
       <r>   35.7112    0.0000 </r>
       <r>   40.9035    0.0000 </r>
       <r>   40.9035    0.0000 </r>
      </set>
      <set comment="kpoint 2">
       <r>    0.7288    1.0000 </r>
       <r>    3.9535    1.0000 </r>
       <r>    4.2215    1.0000 </r>
       <r>    6.2560    1.0000 </r>
       <r>    6.5124    1.0023 </r>
       <r>    6.7890    0.8306 </r>
       <r>   24.8610    0.0000 </r>
       <r>   27.8583    0.0000 </r>
       <r>   31.3631    0.0000 </r>
       <r>   35.2325    0.0000 </r>
       <r>   40.7090    0.0000 </r>
       <r>   41.5027    0.0000 </r>
      </set>
      <set comment="kpoint 3">
       <r>    1.8218    1.0000 </r>
       <r>    3.5064    1.0000 </r>
       <r>    5.1479    1.0000 </r>
       <r>    6.4344    1.0000 </r>
       <r>    6.6484    1.0286 </r>
       <r>    8.4860   -0.0228 </r>
       <r>   19.2570    0.0000 </r>
       <r>   25.9903    0.0000 </r>
       <r>   28.6751    0.0000 </r>
       <r>   35.0048    0.0000 </r>
       <r>   40.0048    0.0000 </r>
       <r>   44.9527    0.0000 </r>
      </set>
      <set comment="kpoint 4">
       <r>    1.8196    1.0000 </r>
       <r>    3.3359    1.0000 </r>
       <r>    6.3215    1.0000 </r>
       <r>    6.5233    1.0000 </r>
       <r>    6.7056    1.0404 </r>
       <r>    9.8699   -0.0036 </r>
       <r>   16.1281    0.0000 </r>
       <r>   25.2839    0.0000 </r>
       <r>   27.6643    0.0000 </r>
       <r>   34.8571    0.0000 </r>
       <r>   39.9698    0.0000 </r>
       <r>   44.5710    0.0000 </r>
      </set>
      <set comment="kpoint 5">
       <r>   -1.6929    1.0000 </r>
       <r>    4.7454    1.0000 </r>
       <r>    4.7454    1.0000 </r>
       <r>    4.8587    1.0000 </r>
       <r>    6.2451    1.0000 </r>
       <r>    6.5122    1.0000 </r>
       <r>   31.9276    0.0000 </r>
       <r>   33.4079    0.0000 </r>
       <r>   33.4079    0.0000 </r>
       <r>   37.6164    0.0000 </r>
       <r>   40.5037    0.0000 </r>
       <r>   40.5037    0.0000 </r>
      </set>
      <set comment="kpoint 6">
       <r>    2.2967    1.0000 </r>
       <r>    3.5962    1.0000 </r>
       <r>    3.8566    1.0000 </r>
       <r>    6.3610    1.0000 </r>
       <r>    6.6853    1.0021 </r>
       <r>    8.7509   -0.0405 </r>
       <r>   22.1495    0.0000 </r>
       <r>   23.2069    0.0000 </r>
       <r>   27.5748    0.0000 </r>
       <r>   37.3537    0.0000 </r>
       <r>   41.8498    0.0000 </r>
       <r>   44.4900    0.0000 </r>
      </set>
      <set comment="kpoint 7">
       <r>    2.5814    1.0000 </r>
       <r>    3.3859    1.0000 </r>
       <r>    4.6351    1.0000 </r>
       <r>    6.5436    1.0000 </r>
       <r>    6.7999    1.0110 </r>
       <r>   11.4324   -0.0021 </r>
       <r>   17.4332    0.0000 </r>
       <r>   21.4518    0.0000 </r>
       <r>   26.0718    0.0000 </r>
       <r>   37.9360    0.0000 </r>
       <r>   42.6959    0.0000 </r>
       <r>   45.3539    0.0000 </r>
      </set>
      <set comment="kpoint 8">
       <r>   -0.3718    1.0000 </r>
       <r>    4.3977    1.0000 </r>
       <r>    4.6435    1.0000 </r>
       <r>    5.6382    1.0000 </r>
       <r>    5.9180    1.0000 </r>
       <r>    6.6444    1.0033 </r>
       <r>   27.7535    0.0000 </r>
       <r>   31.1043    0.0000 </r>
       <r>   32.4000    0.0000 </r>
       <r>   36.9720    0.0000 </r>
       <r>   37.4077    0.0000 </r>
       <r>   38.9951    0.0000 </r>
      </set>
      <set comment="kpoint 9">
       <r>    2.9452    1.0000 </r>
       <r>    3.8454    1.0000 </r>
       <r>    3.8454    1.0000 </r>
       <r>    6.7241    1.0000 </r>
       <r>    6.7241    1.0121 </r>
       <r>   15.2310    0.0000 </r>
       <r>   15.2310    0.0000 </r>
       <r>   18.3257    0.0000 </r>
       <r>   25.5531    0.0000 </r>
       <r>   40.5424    0.0000 </r>
       <r>   40.5424    0.0000 </r>
       <r>   49.0116    0.0000 </r>
      </set>
      <set comment="kpoint 10">
       <r>    1.3258    1.0000 </r>
       <r>    3.8869    1.0000 </r>
       <r>    4.7106    1.0000 </r>
       <r>    6.1591    1.0000 </r>
       <r>    6.8632    1.0049 </r>
       <r>    6.9264    0.6195 </r>
       <r>   21.9257    0.0000 </r>
       <r>   28.4763    0.0000 </r>
       <r>   30.5275    0.0000 </r>
       <r>   35.1714    0.0000 </r>
       <r>   37.4056    0.0000 </r>
       <r>   40.2696    0.0000 </r>
      </set>
      <set comment="kpoint 11">
       <r>    1.1890    1.0000 </r>
       <r>    4.1220    1.0000 </r>
       <r>    4.3770    1.0000 </r>
       <r>    5.7364    1.0000 </r>
       <r>    6.6042    1.0053 </r>
       <r>    7.0847    0.6446 </r>
       <r>   24.8690    0.0000 </r>
       <r>   26.1674    0.0000 </r>
       <r>   32.6812    0.0000 </r>
       <r>   33.5072    0.0000 </r>
       <r>   37.4217    0.0000 </r>
       <r>   42.3651    0.0000 </r>
      </set>
      <set comment="kpoint 12">
       <r>    1.6861    1.0000 </r>
       <r>    3.5436    1.0000 </r>
       <r>    5.7041    1.0000 </r>
       <r>    6.3955    1.0000 </r>
       <r>    7.9736    0.1400 </r>
       <r>    8.1518    0.0011 </r>
       <r>   17.0410    0.0000 </r>
       <r>   26.9378    0.0000 </r>
       <r>   28.7958    0.0000 </r>
       <r>   34.4024    0.0000 </r>
       <r>   37.8841    0.0000 </r>
       <r>   41.7236    0.0000 </r>
      </set>
      <set comment="kpoint 13">
       <r>    2.2258    1.0000 </r>
       <r>    3.7342    1.0000 </r>
       <r>    4.4628    1.0000 </r>
       <r>    6.1176    1.0000 </r>
       <r>    7.1222    0.9594 </r>
       <r>    9.0381   -0.0388 </r>
       <r>   19.6252    0.0000 </r>
       <r>   23.6928    0.0000 </r>
       <r>   30.5965    0.0000 </r>
       <r>   34.0475    0.0000 </r>
       <r>   37.9345    0.0000 </r>
       <r>   43.1054    0.0000 </r>
      </set>
      <set comment="kpoint 14">
       <r>    2.2074    1.0000 </r>
       <r>    3.7154    1.0000 </r>
       <r>    4.6861    1.0000 </r>
       <r>    6.2646    1.0000 </r>
       <r>    7.5326    0.4957 </r>
       <r>   11.1031   -0.0012 </r>
       <r>   16.1848    0.0000 </r>
       <r>   22.9216    0.0000 </r>
       <r>   29.6361    0.0000 </r>
       <r>   34.5466    0.0000 </r>
       <r>   38.6253    0.0000 </r>
       <r>   42.4250    0.0000 </r>
      </set>
      <set comment="kpoint 15">
       <r>    3.0531    1.0000 </r>
       <r>    3.3645    1.0000 </r>
       <r>    4.0389    1.0000 </r>
       <r>    6.4948    1.0000 </r>
       <r>    7.0769    1.0148 </r>
       <r>   12.6109   -0.0002 </r>
       <r>   17.3926    0.0000 </r>
       <r>   19.1182    0.0000 </r>
       <r>   31.2574    0.0000 </r>
       <r>   34.1641    0.0000 </r>
       <r>   36.6083    0.0000 </r>
       <r>   45.3728    0.0000 </r>
      </set>
      <set comment="kpoint 16">
       <r>    3.3660    1.0000 </r>
       <r>    3.3660    1.0000 </r>
       <r>    3.6234    1.0000 </r>
       <r>    6.6668    1.0000 </r>
       <r>    6.6668    1.0000 </r>
       <r>   11.4897   -0.0030 </r>
       <r>   20.3782    0.0000 </r>
       <r>   20.3782    0.0000 </r>
       <r>   22.4030    0.0000 </r>
       <r>   42.2586    0.0000 </r>
       <r>   45.6390    0.0000 </r>
       <r>   45.6390    0.0000 </r>
      </set>
      <set comment="kpoint 17">
       <r>    3.2356    1.0000 </r>
       <r>    3.3177    1.0000 </r>
       <r>    4.1370    1.0000 </r>
       <r>    6.7108    1.0000 </r>
       <r>    6.7399    1.0002 </r>
       <r>   14.4389    0.0000 </r>
       <r>   16.6327    0.0000 </r>
       <r>   19.7640    0.0000 </r>
       <r>   21.3053    0.0000 </r>
       <r>   43.5851    0.0000 </r>
       <r>   47.3732    0.0000 </r>
       <r>   48.2211    0.0000 </r>
      </set>
      <set comment="kpoint 18">
       <r>    0.7670    1.0000 </r>
       <r>    4.8855    1.0000 </r>
       <r>    4.9247    1.0000 </r>
       <r>    4.9247    1.0000 </r>
       <r>    5.6520    1.0000 </r>
       <r>    7.1082    0.7815 </r>
       <r>   27.6128    0.0000 </r>
       <r>   29.3487    0.0000 </r>
       <r>   29.3487    0.0000 </r>
       <r>   31.3244    0.0000 </r>
       <r>   41.4026    0.0000 </r>
       <r>   41.4026    0.0000 </r>
      </set>
      <set comment="kpoint 19">
       <r>    2.1235    1.0000 </r>
       <r>    3.8888    1.0000 </r>
       <r>    4.7426    1.0000 </r>
       <r>    5.6024    1.0000 </r>
       <r>    6.7739    1.0420 </r>
       <r>    8.0749    0.0172 </r>
       <r>   22.8159    0.0000 </r>
       <r>   26.5946    0.0000 </r>
       <r>   27.3913    0.0000 </r>
       <r>   31.8929    0.0000 </r>
       <r>   40.4817    0.0000 </r>
       <r>   42.4590    0.0000 </r>
      </set>
      <set comment="kpoint 20">
       <r>    2.3310    1.0000 </r>
       <r>    3.8113    1.0000 </r>
       <r>    4.4886    1.0000 </r>
       <r>    5.8989    1.0001 </r>
       <r>    7.8678    0.0216 </r>
       <r>   10.7034   -0.0080 </r>
       <r>   17.4978    0.0000 </r>
       <r>   24.7969    0.0000 </r>
       <r>   26.4784    0.0000 </r>
       <r>   34.3664    0.0000 </r>
       <r>   39.4801    0.0000 </r>
       <r>   40.5203    0.0000 </r>
      </set>
      <set comment="kpoint 21">
       <r>    2.7536    1.0000 </r>
       <r>    3.0920    1.0000 </r>
       <r>    4.8453    1.0000 </r>
       <r>    6.1006    1.0008 </r>
       <r>    7.3263    0.6637 </r>
       <r>   10.6660   -0.0098 </r>
       <r>   20.4649    0.0000 </r>
       <r>   21.2610    0.0000 </r>
       <r>   28.9529    0.0000 </r>
       <r>   30.7956    0.0000 </r>
       <r>   39.2096    0.0000 </r>
       <r>   42.8804    0.0000 </r>
      </set>
      <set comment="kpoint 22">
       <r>    2.6455    1.0000 </r>
       <r>    3.1211    1.0000 </r>
       <r>    4.5964    1.0000 </r>
       <r>    6.5032    1.0019 </r>
       <r>    7.6180    0.0989 </r>
       <r>   13.8498    0.0000 </r>
       <r>   16.5229    0.0000 </r>
       <r>   20.1235    0.0000 </r>
       <r>   28.9959    0.0000 </r>
       <r>   32.2526    0.0000 </r>
       <r>   36.9064    0.0000 </r>
       <r>   41.7702    0.0000 </r>
      </set>
      <set comment="kpoint 23">
       <r>    2.5017    1.0000 </r>
       <r>    3.0310    1.0000 </r>
       <r>    5.8969    1.0000 </r>
       <r>    5.8969    1.0025 </r>
       <r>    6.8195    1.1088 </r>
       <r>    9.9681   -0.0136 </r>
       <r>   23.3425    0.0000 </r>
       <r>   23.3425    0.0000 </r>
       <r>   25.4431    0.0000 </r>
       <r>   27.9711    0.0000 </r>
       <r>   41.2499    0.0000 </r>
       <r>   45.5562    0.0000 </r>
      </set>
      <set comment="kpoint 24">
       <r>    2.3089    1.0000 </r>
       <r>    2.4745    1.0000 </r>
       <r>    6.0745    1.0072 </r>
       <r>    6.4378    1.0427 </r>
       <r>    7.7218    0.0274 </r>
       <r>   13.3159    0.0000 </r>
       <r>   18.5779    0.0000 </r>
       <r>   21.2661    0.0000 </r>
       <r>   25.7598    0.0000 </r>
       <r>   28.8366    0.0000 </r>
       <r>   36.5502    0.0000 </r>
       <r>   45.0076    0.0000 </r>
      </set>
      <set comment="kpoint 25">
       <r>    2.1267    1.0000 </r>
       <r>    2.1267    1.0000 </r>
       <r>    6.2083    1.0219 </r>
       <r>    7.5147    0.7981 </r>
       <r>    7.5147    0.0300 </r>
       <r>   16.9530    0.0000 </r>
       <r>   16.9530    0.0000 </r>
       <r>   18.3242    0.0000 </r>
       <r>   27.2405    0.0000 </r>
       <r>   27.2405    0.0000 </r>
       <r>   34.1281    0.0000 </r>
       <r>   45.6443    0.0000 </r>
      </set>
      <set comment="kpoint 26">
       <r>    1.7893    1.0000 </r>
       <r>    1.7990    1.0000 </r>
       <r>    7.4602    0.8637 </r>
       <r>    7.4602    0.6171 </r>
       <r>    7.6775    0.0067 </r>
       <r>   16.2401    0.0000 </r>
       <r>   18.9201    0.0000 </r>
       <r>   18.9201    0.0000 </r>
       <r>   24.6853    0.0000 </r>
       <r>   25.9314    0.0000 </r>
       <r>   32.5551    0.0000 </r>
       <r>   48.6794    0.0000 </r>
      </set>
     </set>
     <set comment="spin 2">
      <set comment="kpoint 1">
       <r>   -0.6323    1.0000 </r>
       <r>    5.9609    1.0000 </r>
       <r>    5.9609    1.0000 </r>
       <r>    7.0581    0.8772 </r>
       <r>    8.3516   -0.0011 </r>
       <r>    8.3516    0.0000 </r>
       <r>   30.7067    0.0000 </r>
       <r>   30.7067    0.0000 </r>
       <r>   34.7276    0.0000 </r>
       <r>   36.4791    0.0000 </r>
       <r>   41.3475    0.0000 </r>
       <r>   41.3475    0.0000 </r>
      </set>
      <set comment="kpoint 2">
       <r>    1.1773    1.0000 </r>
       <r>    5.3717    1.0000 </r>
       <r>    5.6085    1.0000 </r>
       <r>    8.1974   -0.0665 </r>
       <r>    8.3795   -0.0007 </r>
       <r>    8.5476    0.0000 </r>
       <r>   25.5856    0.0000 </r>
       <r>   28.3896    0.0000 </r>
       <r>   32.0668    0.0000 </r>
       <r>   35.5407    0.0000 </r>
       <r>   41.3716    0.0000 </r>
       <r>   41.9388    0.0000 </r>
      </set>
      <set comment="kpoint 3">
       <r>    2.7099    1.0000 </r>
       <r>    4.8724    1.0000 </r>
       <r>    6.1180    1.0000 </r>
       <r>    8.3526   -0.0037 </r>
       <r>    8.7185    0.0000 </r>
       <r>   10.0080    0.0000 </r>
       <r>   20.1966    0.0000 </r>
       <r>   26.4893    0.0000 </r>
       <r>   29.3178    0.0000 </r>
       <r>   35.4906    0.0000 </r>
       <r>   40.6682    0.0000 </r>
       <r>   45.3514    0.0000 </r>
      </set>
      <set comment="kpoint 4">
       <r>    2.9031    1.0000 </r>
       <r>    4.6825    1.0000 </r>
       <r>    7.2158    1.0000 </r>
       <r>    8.4494    0.0000 </r>
       <r>    8.7928    0.0000 </r>
       <r>   11.1113    0.0000 </r>
       <r>   17.2850    0.0000 </r>
       <r>   25.7585    0.0000 </r>
       <r>   28.2702    0.0000 </r>
       <r>   35.3996    0.0000 </r>
       <r>   40.6590    0.0000 </r>
       <r>   44.8897    0.0000 </r>
      </set>
      <set comment="kpoint 5">
       <r>   -1.3283    1.0000 </r>
       <r>    6.2521    1.0000 </r>
       <r>    6.2521    1.0000 </r>
       <r>    6.3809    1.0266 </r>
       <r>    8.2414   -0.0026 </r>
       <r>    8.5537    0.0000 </r>
       <r>   32.2339    0.0000 </r>
       <r>   33.6660    0.0000 </r>
       <r>   33.6660    0.0000 </r>
       <r>   38.1232    0.0000 </r>
       <r>   41.2461    0.0000 </r>
       <r>   41.2461    0.0000 </r>
      </set>
      <set comment="kpoint 6">
       <r>    2.9745    1.0000 </r>
       <r>    4.9410    1.0000 </r>
       <r>    5.1164    1.0000 </r>
       <r>    8.3076   -0.0046 </r>
       <r>    8.7284    0.0000 </r>
       <r>   10.2611    0.0000 </r>
       <r>   22.9596    0.0000 </r>
       <r>   23.8980    0.0000 </r>
       <r>   28.2050    0.0000 </r>
       <r>   37.6527    0.0000 </r>
       <r>   42.3409    0.0000 </r>
       <r>   44.9935    0.0000 </r>
      </set>
      <set comment="kpoint 7">
       <r>    3.6848    1.0000 </r>
       <r>    4.6842    1.0000 </r>
       <r>    5.7035    1.0000 </r>
       <r>    8.4955    0.0000 </r>
       <r>    8.8280    0.0000 </r>
       <r>   12.6548    0.0000 </r>
       <r>   18.4155    0.0000 </r>
       <r>   22.1645    0.0000 </r>
       <r>   26.6772    0.0000 </r>
       <r>   38.3250    0.0000 </r>
       <r>   43.0818    0.0000 </r>
       <r>   45.9334    0.0000 </r>
      </set>
      <set comment="kpoint 8">
       <r>    0.0179    1.0000 </r>
       <r>    5.8633    1.0000 </r>
       <r>    6.1132    1.0000 </r>
       <r>    7.2065    0.7406 </r>
       <r>    7.8255    0.0007 </r>
       <r>    8.6943    0.0000 </r>
       <r>   28.3702    0.0000 </r>
       <r>   31.5000    0.0000 </r>
       <r>   32.9222    0.0000 </r>
       <r>   37.4699    0.0000 </r>
       <r>   38.0537    0.0000 </r>
       <r>   39.5513    0.0000 </r>
      </set>
      <set comment="kpoint 9">
       <r>    4.1691    1.0000 </r>
       <r>    5.0266    1.0000 </r>
       <r>    5.0266    1.0000 </r>
       <r>    8.7071    0.0000 </r>
       <r>    8.7071    0.0000 </r>
       <r>   16.2471    0.0000 </r>
       <r>   16.2471    0.0000 </r>
       <r>   19.1434    0.0000 </r>
       <r>   26.1793    0.0000 </r>
       <r>   40.8993    0.0000 </r>
       <r>   40.8993    0.0000 </r>
       <r>   49.6852    0.0000 </r>
      </set>
      <set comment="kpoint 10">
       <r>    1.9571    1.0000 </r>
       <r>    5.2975    1.0000 </r>
       <r>    5.9479    1.0000 </r>
       <r>    7.9736   -0.0311 </r>
       <r>    8.5862   -0.0017 </r>
       <r>    8.8686    0.0000 </r>
       <r>   22.7748    0.0000 </r>
       <r>   28.8630    0.0000 </r>
       <r>   31.1957    0.0000 </r>
       <r>   35.7824    0.0000 </r>
       <r>   38.0225    0.0000 </r>
       <r>   40.7424    0.0000 </r>
      </set>
      <set comment="kpoint 11">
       <r>    1.6879    1.0000 </r>
       <r>    5.5841    1.0000 </r>
       <r>    5.7720    1.0000 </r>
       <r>    7.5352    0.2019 </r>
       <r>    8.2676   -0.0023 </r>
       <r>    9.0306    0.0000 </r>
       <r>   25.6338    0.0000 </r>
       <r>   26.8015    0.0000 </r>
       <r>   33.1738    0.0000 </r>
       <r>   34.0632    0.0000 </r>
       <r>   37.9696    0.0000 </r>
       <r>   42.8639    0.0000 </r>
      </set>
      <set comment="kpoint 12">
       <r>    2.7292    1.0000 </r>
       <r>    4.9200    1.0000 </r>
       <r>    6.9335    1.0000 </r>
       <r>    8.2512   -0.0064 </r>
       <r>    9.5108    0.0000 </r>
       <r>    9.7245    0.0000 </r>
       <r>   18.1326    0.0000 </r>
       <r>   27.2926    0.0000 </r>
       <r>   29.4232    0.0000 </r>
       <r>   35.0625    0.0000 </r>
       <r>   38.5773    0.0000 </r>
       <r>   42.1168    0.0000 </r>
      </set>
      <set comment="kpoint 13">
       <r>    3.1575    1.0000 </r>
       <r>    5.1074    1.0000 </r>
       <r>    5.7217    1.0001 </r>
       <r>    7.8946   -0.0170 </r>
       <r>    8.9756   -0.0002 </r>
       <r>   10.5125    0.0000 </r>
       <r>   20.5450    0.0000 </r>
       <r>   24.3770    0.0000 </r>
       <r>   31.0858    0.0000 </r>
       <r>   34.6240    0.0000 </r>
       <r>   38.4546    0.0000 </r>
       <r>   43.6856    0.0000 </r>
      </set>
      <set comment="kpoint 14">
       <r>    3.3528    1.0000 </r>
       <r>    5.0826    1.0000 </r>
       <r>    5.9550    1.0001 </r>
       <r>    8.0806   -0.0019 </r>
       <r>    9.3072    0.0000 </r>
       <r>   12.2465    0.0000 </r>
       <r>   17.3044    0.0000 </r>
       <r>   23.5945    0.0000 </r>
       <r>   30.1008    0.0000 </r>
       <r>   35.1929    0.0000 </r>
       <r>   39.0330    0.0000 </r>
       <r>   43.0590    0.0000 </r>
      </set>
[...]
       </set>
       <set comment="band 5">
        <r>  0.0086  0.0022  0.0022  0.0171  0.0970  0.3426  0.1050  0.0970  0.3150 </r>
       </set>
       <set comment="band 6">
        <r>  0.0625  0.0548  0.0548  0.2661  0.0893  0.1442  0.0496  0.0893  0.1487 </r>
       </set>
       <set comment="band 7">
        <r>  0.0000  0.2263  0.2263  0.0000  0.1515  0.0000  0.1623  0.1515  0.0541 </r>
       </set>
       <set comment="band 8">
        <r>  0.4741  0.0445  0.0445  0.0280  0.0968  0.1020  0.0014  0.0968  0.0043 </r>
       </set>
       <set comment="band 9">
        <r>  0.0297  0.1932  0.1932  0.0860  0.0634  0.1018  0.0009  0.0634  0.0027 </r>
       </set>
       <set comment="band 10">
        <r>  0.0000  0.0449  0.0449  0.0000  0.0723  0.0000  0.3719  0.0723  0.1240 </r>
       </set>
       <set comment="band 11">
        <r>  0.0249  0.0071  0.0071  0.0343  0.0258  0.1898  0.1164  0.0258  0.3491 </r>
       </set>
       <set comment="band 12">
        <r>  0.1044  0.0353  0.0353  0.1799  0.2828  0.3401  0.0245  0.2828  0.0736 </r>
       </set>
      </set>
      <set comment="kpoint 16">
       <set comment="band 1">
        <r>  0.1638  0.1025  0.1025  0.1025  0.1503  0.1503  0.0000  0.1503  0.0000 </r>
       </set>
       <set comment="band 2">
        <r>  0.0000  0.0556  0.0019  0.0375  0.0165  0.3265  0.0015  0.4836  0.0493 </r>
       </set>
       <set comment="band 3">
        <r>  0.0000  0.0077  0.0614  0.0258  0.5346  0.2246  0.0493  0.0674  0.0015 </r>
       </set>
       <set comment="band 4">
        <r>  0.0000  0.0000  0.0000  0.0001  0.0027  0.0385  0.0592  0.0211  0.8675 </r>
       </set>
       <set comment="band 5">
        <r>  0.0000  0.0000  0.0001  0.0000  0.0388  0.0030  0.8675  0.0204  0.0592 </r>
       </set>
       <set comment="band 6">
        <r>  0.0805  0.0769  0.0769  0.0769  0.2152  0.2152  0.0000  0.2152  0.0000 </r>
       </set>
       <set comment="band 7">
        <r>  0.0000  0.2320  0.0282  0.1086  0.0372  0.1429  0.0056  0.3053  0.0433 </r>
       </set>
       <set comment="band 8">
        <r>  0.0000  0.0139  0.2176  0.1373  0.2865  0.1807  0.0433  0.0183  0.0056 </r>
       </set>
       <set comment="band 9">
        <r>  0.5871  0.0844  0.0844  0.0844  0.0022  0.0022  0.0000  0.0022  0.0000 </r>
       </set>
       <set comment="band 10">
        <r>  0.0000  0.0000  0.0000  0.0000  0.0000  0.0000  0.0000  0.0000  0.0000 </r>
       </set>
       <set comment="band 11">
        <r>  0.0000  0.0038  0.0051  0.0001  0.3982  0.0074  0.0677  0.2988  0.0121 </r>
       </set>
       <set comment="band 12">
        <r>  0.0000  0.0022  0.0009  0.0059  0.0714  0.4622  0.0121  0.1708  0.0677 </r>
       </set>
      </set>
      <set comment="kpoint 17">
       <set comment="band 1">
        <r>  0.0356  0.0000  0.0000  0.1540  0.0000  0.7114  0.0143  0.0000  0.0428 </r>
       </set>
       <set comment="band 2">
        <r>  0.0000  0.0536  0.0536  0.0000  0.4340  0.0000  0.0000  0.4340  0.0000 </r>
       </set>
       <set comment="band 3">
        <r>  0.0000  0.1395  0.1395  0.0000  0.3342  0.0000  0.0000  0.3342  0.0000 </r>
       </set>
       <set comment="band 4">
        <r>  0.0005  0.0000  0.0000  0.0006  0.0000  0.0720  0.2294  0.0000  0.6883 </r>
       </set>
       <set comment="band 5">
        <r>  0.0000  0.0000  0.0000  0.0000  0.0000  0.0000  0.7441  0.0000  0.2480 </r>
       </set>
       <set comment="band 6">
        <r>  0.0000  0.2097  0.2097  0.0000  0.2527  0.0000  0.0000  0.2527  0.0000 </r>
       </set>
       <set comment="band 7">
        <r>  0.2219  0.0000  0.0000  0.2276  0.0000  0.4572  0.0081  0.0000  0.0242 </r>
       </set>
       <set comment="band 8">
        <r>  0.0000  0.1896  0.1896  0.0000  0.2579  0.0000  0.0000  0.2579  0.0000 </r>
       </set>
       <set comment="band 9">
        <r>  0.5789  0.0000  0.0000  0.2147  0.0000  0.0459  0.0020  0.0000  0.0061 </r>
       </set>
       <set comment="band 10">
        <r>  0.0000  0.0004  0.0004  0.0000  0.1537  0.0000  0.0000  0.1537  0.0000 </r>
       </set>
       <set comment="band 11">
        <r>  0.0000  0.0298  0.0298  0.0000  0.0805  0.0000  0.0000  0.0805  0.0000 </r>
       </set>
       <set comment="band 12">
        <r>  0.0143  0.0000  0.0000  0.1101  0.0000  0.1811  0.1250  0.0000  0.3749 </r>
       </set>
      </set>
      <set comment="kpoint 18">
       <set comment="band 1">
        <r>  0.5963  0.0000  0.0000  0.2198  0.0000  0.0000  0.0155  0.0000  0.0466 </r>
       </set>
       <set comment="band 2">
        <r>  0.0000  0.0151  0.0151  0.0000  0.4784  0.0000  0.0000  0.4784  0.0000 </r>
       </set>
       <set comment="band 3">
        <r>  0.0000  0.0151  0.0151  0.0000  0.4784  0.0000  0.0000  0.4784  0.0000 </r>
       </set>
       <set comment="band 4">
        <r>  0.0000  0.0000  0.0000  0.0000  0.0000  0.0000  0.6933  0.0000  0.2311 </r>
       </set>
       <set comment="band 5">
        <r>  0.0000  0.0000  0.0000  0.0000  0.0000  0.9884  0.0000  0.0000  0.0000 </r>
       </set>
       <set comment="band 6">
        <r>  0.0395  0.0000  0.0000  0.0120  0.0000  0.0000  0.2344  0.0000  0.7033 </r>
       </set>
       <set comment="band 7">
        <r>  0.0000  0.0000  0.0000  0.0000  0.0000  0.0000  0.5633  0.0000  0.1878 </r>
       </set>
       <set comment="band 8">
        <r>  0.0000  0.1724  0.1721  0.0000  0.3631  0.0000  0.0000  0.3623  0.0000 </r>
       </set>
       <set comment="band 9">
        <r>  0.0000  0.1721  0.1724  0.0000  0.3623  0.0000  0.0000  0.3631  0.0000 </r>
       </set>
       <set comment="band 10">
        <r>  0.1522  0.0000  0.0000  0.2753  0.0000  0.0000  0.0001  0.0000  0.0002 </r>
       </set>
       <set comment="band 11">
        <r>  0.0000  0.1792  0.1603  0.0000  0.0013  0.0000  0.0000  0.0012  0.0000 </r>
       </set>
       <set comment="band 12">
        <r>  0.0000  0.1603  0.1792  0.0000  0.0012  0.0000  0.0000  0.0013  0.0000 </r>
       </set>
      </set>
      <set comment="kpoint 19">
       <set comment="band 1">
        <r>  0.3416  0.0067  0.0000  0.2537  0.0705  0.0000  0.0978  0.0000  0.1211 </r>
       </set>
       <set comment="band 2">
        <r>  0.0043  0.0330  0.0000  0.0174  0.1575  0.0000  0.4403  0.0000  0.2667 </r>
       </set>
       <set comment="band 3">
        <r>  0.0000  0.0000  0.0298  0.0000  0.0000  0.2880  0.0000  0.6655  0.0000 </r>
       </set>
       <set comment="band 4">
        <r>  0.0000  0.0325  0.0000  0.0113  0.6838  0.0000  0.2375  0.0000  0.0041 </r>
       </set>
       <set comment="band 5">
        <r>  0.0000  0.0000  0.0116  0.0000  0.0000  0.6965  0.0000  0.2746  0.0000 </r>
       </set>
       <set comment="band 6">
        <r>  0.1192  0.0120  0.0000  0.0806  0.0112  0.0000  0.1602  0.0000  0.5991 </r>
       </set>
       <set comment="band 7">
        <r>  0.0891  0.2811  0.0000  0.0343  0.3388  0.0000  0.1634  0.0000  0.0672 </r>
       </set>
       <set comment="band 8">
        <r>  0.0000  0.0000  0.5088  0.0000  0.0000  0.0134  0.0000  0.5320  0.0000 </r>
       </set>
       <set comment="band 9">
        <r>  0.0908  0.0022  0.0000  0.0759  0.0441  0.0000  0.4339  0.0000  0.0596 </r>
       </set>
       <set comment="band 10">
        <r>  0.0579  0.2057  0.0000  0.0631  0.1587  0.0000  0.0431  0.0000  0.1575 </r>
       </set>
       <set comment="band 11">
        <r>  0.0000  0.0000  0.1784  0.0000  0.0000  0.7399  0.0000  0.1590  0.0000 </r>
       </set>
       <set comment="band 12">
        <r>  0.0684  0.1875  0.0000  0.0114  0.1003  0.0000  0.2334  0.0000  0.1074 </r>
       </set>
      </set>
      <set comment="kpoint 20">
       <set comment="band 1">
        <r>  0.1159  0.0029  0.0000  0.0806  0.2743  0.0000  0.4277  0.0000  0.0206 </r>
       </set>
       <set comment="band 2">
        <r>  0.0087  0.0989  0.0000  0.1147  0.0113  0.0000  0.0711  0.0000  0.5998 </r>
       </set>
       <set comment="band 3">
        <r>  0.0000  0.0000  0.0291  0.0000  0.0000  0.4272  0.0000  0.5264  0.0000 </r>
       </set>
       <set comment="band 4">
        <r>  0.0256  0.0149  0.0000  0.0005  0.5327  0.0000  0.3853  0.0000  0.0061 </r>
       </set>
       <set comment="band 5">
        <r>  0.0000  0.0000  0.0033  0.0000  0.0000  0.5558  0.0000  0.4313  0.0000 </r>
       </set>
       <set comment="band 6">
        <r>  0.0798  0.1357  0.0000  0.2800  0.0362  0.0000  0.0305  0.0000  0.3936 </r>
       </set>
       <set comment="band 7">
        <r>  0.2798  0.2125  0.0000  0.0016  0.3405  0.0000  0.1189  0.0000  0.0299 </r>
       </set>
       <set comment="band 8">
        <r>  0.0000  0.0000  0.6235  0.0000  0.0000  0.0823  0.0000  0.2706  0.0000 </r>
       </set>
       <set comment="band 9">
        <r>  0.1014  0.0223  0.0000  0.0533  0.0134  0.0000  0.4808  0.0000  0.0068 </r>
       </set>
       <set comment="band 10">
        <r>  0.0094  0.1479  0.0000  0.0001  0.0334  0.0000  0.0353  0.0000  0.4847 </r>
       </set>
       <set comment="band 11">
        <r>  0.0000  0.0000  0.1478  0.0000  0.0000  0.6428  0.0000  0.4113  0.0000 </r>
       </set>
       <set comment="band 12">
        <r>  0.0046  0.1518  0.0000  0.2086  0.0046  0.0000  0.4727  0.0000  0.1118 </r>
       </set>
      </set>
      <set comment="kpoint 21">
       <set comment="band 1">
        <r>  0.1238  0.0051  0.0051  0.2030  0.0506  0.0006  0.1167  0.0506  0.3500 </r>
       </set>
       <set comment="band 2">
        <r>  0.0000  0.0229  0.0229  0.0000  0.0566  0.0000  0.5668  0.0566  0.1889 </r>
       </set>
       <set comment="band 3">
        <r>  0.0079  0.0190  0.0190  0.0101  0.2541  0.3295  0.0192  0.2541  0.0576 </r>
       </set>
       <set comment="band 4">
        <r>  0.0000  0.0213  0.0213  0.0000  0.3946  0.0000  0.1064  0.3946  0.0355 </r>
       </set>
       <set comment="band 5">
        <r>  0.0151  0.0004  0.0004  0.0085  0.1193  0.6130  0.0268  0.1193  0.0805 </r>
       </set>
       <set comment="band 6">
        <r>  0.1522  0.0243  0.0243  0.2522  0.0432  0.0387  0.0964  0.0432  0.2893 </r>
       </set>
       <set comment="band 7">
        <r>  0.0000  0.2308  0.2308  0.0000  0.1322  0.0000  0.2093  0.1322  0.0698 </r>
       </set>
       <set comment="band 8">
        <r>  0.2413  0.1587  0.1587  0.0315  0.1336  0.0332  0.0044  0.1336  0.0132 </r>
       </set>
       <set comment="band 9">
        <r>  0.0000  0.0658  0.0658  0.0000  0.0643  0.0000  0.4934  0.0643  0.1645 </r>
       </set>
       <set comment="band 10">
        <r>  0.0765  0.1195  0.1195  0.0278  0.0135  0.0027  0.0675  0.0135  0.2026 </r>
       </set>
       <set comment="band 11">
        <r>  0.0021  0.0717  0.0717  0.1194  0.0676  0.3133  0.0675  0.0676  0.2024 </r>
       </set>
       <set comment="band 12">
        <r>  0.1627  0.0004  0.0004  0.1938  0.1369  0.2946  0.0516  0.1369  0.1547 </r>
       </set>
      </set>
      <set comment="kpoint 22">
       <set comment="band 1">
        <r>  0.0266  0.0267  0.0248  0.0267  0.1430  0.0001  0.6683  0.0001  0.0000 </r>
       </set>
       <set comment="band 2">
        <r>  0.0000  0.0803  0.0000  0.0803  0.0000  0.0160  0.0000  0.0160  0.7159 </r>
       </set>
       <set comment="band 3">
        <r>  0.0369  0.0015  0.0249  0.0015  0.1701  0.3488  0.0369  0.3488  0.0000 </r>
       </set>
       <set comment="band 4">
        <r>  0.0120  0.0091  0.0166  0.0091  0.5309  0.1117  0.1730  0.1117  0.0000 </r>
       </set>
       <set comment="band 5">
        <r>  0.0000  0.0130  0.0000  0.0130  0.0000  0.4424  0.0000  0.4424  0.0765 </r>
       </set>
       <set comment="band 6">
        <r>  0.0000  0.2856  0.0000  0.2856  0.0000  0.0483  0.0000  0.0483  0.2888 </r>
       </set>
       <set comment="band 7">
        <r>  0.2625  0.1073  0.0541  0.1073  0.2822  0.0001  0.1553  0.0001  0.0000 </r>
       </set>
       <set comment="band 8">
        <r>  0.1807  0.0020  0.4111  0.0020  0.0051  0.1137  0.0921  0.1137  0.0000 </r>
       </set>
       <set comment="band 9">
        <r>  0.0256  0.0016  0.1537  0.0016  0.0232  0.0183  0.5922  0.0183  0.0000 </r>
       </set>
       <set comment="band 10">
        <r>  0.0000  0.0490  0.0000  0.0490  0.0000  0.0077  0.0000  0.0077  0.6933 </r>
       </set>
       <set comment="band 11">
        <r>  0.0272  0.2061  0.0927  0.2061  0.0010  0.0670  0.1221  0.0670  0.0000 </r>
       </set>
       <set comment="band 12">
        <r>  0.2206  0.0323  0.0056  0.0323  0.2280  0.3529  0.0163  0.3529  0.0000 </r>
       </set>
      </set>
      <set comment="kpoint 23">
       <set comment="band 1">
        <r>  0.1295  0.0000  0.0000  0.2328  0.0000  0.0000  0.1339  0.0000  0.4017 </r>
       </set>
       <set comment="band 2">
        <r>  0.0000  0.0000  0.0000  0.0000  0.0000  0.0000  0.6791  0.0000  0.2264 </r>
       </set>
       <set comment="band 3">
        <r>  0.0000  0.0306  0.0306  0.0000  0.4563  0.0000  0.0000  0.4564  0.0000 </r>
       </set>
       <set comment="band 4">
        <r>  0.0000  0.0306  0.0306  0.0000  0.4564  0.0000  0.0000  0.4563  0.0000 </r>
       </set>
       <set comment="band 5">
        <r>  0.0000  0.0000  0.0000  0.0000  0.0000  0.9807  0.0000  0.0000  0.0000 </r>
       </set>
       <set comment="band 6">
        <r>  0.2214  0.0000  0.0000  0.2405  0.0000  0.0000  0.1245  0.0000  0.3735 </r>
       </set>
       <set comment="band 7">
        <r>  0.0000  0.3064  0.3064  0.0000  0.1888  0.0000  0.0000  0.1888  0.0000 </r>
       </set>
       <set comment="band 8">
        <r>  0.0000  0.3064  0.3064  0.0000  0.1888  0.0000  0.0000  0.1888  0.0000 </r>
       </set>
       <set comment="band 9">
        <r>  0.0000  0.0000  0.0000  0.0000  0.0000  0.0000  0.7641  0.0000  0.2547 </r>
       </set>
       <set comment="band 10">
        <r>  0.2672  0.0000  0.0000  0.0676  0.0000  0.0000  0.0720  0.0000  0.2160 </r>
       </set>
       <set comment="band 11">
        <r>  0.1347  0.0000  0.0000  0.3219  0.0000  0.0000  0.1331  0.0000  0.3992 </r>
       </set>
       <set comment="band 12">
        <r>  0.0000  0.0000  0.0000  0.0000  0.0000  1.2504  0.0000  0.0000  0.0000 </r>
       </set>
      </set>
      <set comment="kpoint 24">
       <set comment="band 1">
        <r>  0.0208  0.0000  0.0000  0.0872  0.0243  0.0000  0.5815  0.0000  0.1948 </r>
       </set>
       <set comment="band 2">
        <r>  0.0009  0.0288  0.0000  0.0253  0.0059  0.0000  0.2495  0.0000  0.5973 </r>
       </set>
       <set comment="band 3">
        <r>  0.0000  0.0000  0.0485  0.0000  0.0000  0.3379  0.0000  0.5870  0.0000 </r>
       </set>
       <set comment="band 4">
        <r>  0.0215  0.0418  0.0000  0.0079  0.8465  0.0000  0.0501  0.0000  0.0014 </r>
       </set>
       <set comment="band 5">
        <r>  0.0000  0.0000  0.0032  0.0000  0.0000  0.6382  0.0000  0.3465  0.0000 </r>
       </set>
       <set comment="band 6">
        <r>  0.1377  0.0509  0.0000  0.4466  0.0281  0.0000  0.0466  0.0000  0.2295 </r>
       </set>
       <set comment="band 7">
        <r>  0.1276  0.4906  0.0000  0.0000  0.2035  0.0000  0.0674  0.0000  0.0555 </r>
       </set>
       <set comment="band 8">
        <r>  0.0000  0.0000  0.7022  0.0000  0.0000  0.0360  0.0000  0.1855  0.0000 </r>
       </set>
       <set comment="band 9">
        <r>  0.0719  0.0043  0.0000  0.0034  0.0124  0.0000  0.8696  0.0000  0.0256 </r>
       </set>
       <set comment="band 10">
        <r>  0.0710  0.1016  0.0000  0.0010  0.0095  0.0000  0.0006  0.0000  0.6840 </r>
       </set>
       <set comment="band 11">
        <r>  0.2875  0.0685  0.0000  0.2796  0.0154  0.0000  0.1012  0.0000  0.1156 </r>
       </set>
       <set comment="band 12">
        <r>  0.0000  0.0000  0.0724  0.0000  0.0000  0.6186  0.0000  0.2905  0.0000 </r>
       </set>
      </set>
      <set comment="kpoint 25">
       <set comment="band 1">
        <r>  0.0000  0.0217  0.0000  0.0217  0.0000  0.0036  0.0000  0.0036  0.8590 </r>
       </set>
       <set comment="band 2">
        <r>  0.0000  0.0072  0.0289  0.0072  0.0048  0.0012  0.8590  0.0012  0.0000 </r>
       </set>
       <set comment="band 3">
        <r>  0.0188  0.0158  0.0158  0.0158  0.3009  0.3009  0.0000  0.3009  0.0000 </r>
       </set>
       <set comment="band 4">
        <r>  0.0000  0.0041  0.0166  0.0041  0.6292  0.1573  0.0152  0.1573  0.0000 </r>
       </set>
       <set comment="band 5">
        <r>  0.0000  0.0124  0.0000  0.0124  0.0000  0.4719  0.0000  0.4719  0.0152 </r>
       </set>
       <set comment="band 6">
        <r>  0.0000  0.3386  0.0000  0.3386  0.0000  0.0325  0.0000  0.0325  0.1923 </r>
       </set>
       <set comment="band 7">
        <r>  0.0000  0.1129  0.4515  0.1129  0.0433  0.0108  0.1923  0.0108  0.0000 </r>
       </set>
       <set comment="band 8">
        <r>  0.2590  0.1475  0.1475  0.1475  0.0610  0.0610  0.0000  0.0610  0.0000 </r>
       </set>
       <set comment="band 9">
        <r>  0.0000  0.0436  0.0000  0.0436  0.0000  0.0050  0.0000  0.0050  0.9133 </r>
       </set>
       <set comment="band 10">
        <r>  0.0000  0.0145  0.0581  0.0145  0.0067  0.0017  0.9133  0.0017  0.0000 </r>
       </set>
       <set comment="band 11">
        <r>  0.4676  0.1004  0.1004  0.1004  0.0036  0.0036  0.0000  0.0036  0.0000 </r>
       </set>
       <set comment="band 12">
        <r>  0.0402  0.0170  0.0170  0.0170  0.2589  0.2589  0.0000  0.2589  0.0000 </r>
       </set>
      </set>
      <set comment="kpoint 26">
       <set comment="band 1">
        <r>  0.0013  0.0000  0.0000  0.0294  0.0000  0.0000  0.2200  0.0000  0.6599 </r>
       </set>
       <set comment="band 2">
        <r>  0.0000  0.0000  0.0000  0.0000  0.0000  0.0000  0.6823  0.0000  0.2274 </r>
       </set>
       <set comment="band 3">
        <r>  0.0000  0.0129  0.0129  0.0000  0.4783  0.0000  0.0000  0.4783  0.0000 </r>
       </set>
       <set comment="band 4">
        <r>  0.0000  0.0129  0.0129  0.0000  0.4783  0.0000  0.0000  0.4783  0.0000 </r>
       </set>
       <set comment="band 5">
        <r>  0.0000  0.0000  0.0000  0.0000  0.0000  0.9876  0.0000  0.0000  0.0000 </r>
       </set>
       <set comment="band 6">
        <r>  0.0851  0.0000  0.0000  0.6755  0.0000  0.0000  0.0322  0.0000  0.0966 </r>
       </set>
       <set comment="band 7">
        <r>  0.0000  0.3985  0.3985  0.0000  0.0339  0.0000  0.0000  0.0339  0.0000 </r>
       </set>
       <set comment="band 8">
        <r>  0.0000  0.3985  0.3985  0.0000  0.0339  0.0000  0.0000  0.0339  0.0000 </r>
       </set>
       <set comment="band 9">
        <r>  0.0000  0.0000  0.0000  0.0000  0.0000  0.0000  0.8626  0.0000  0.2875 </r>
       </set>
       <set comment="band 10">
        <r>  0.0508  0.0000  0.0000  0.0241  0.0000  0.0000  0.2455  0.0000  0.7365 </r>
       </set>
       <set comment="band 11">
        <r>  0.6315  0.0000  0.0000  0.1193  0.0000  0.0000  0.0102  0.0000  0.0306 </r>
       </set>
       <set comment="band 12">
        <r>  0.0000  0.0000  0.0000  0.0000  0.0000  0.3151  0.0000  0.0000  0.0000 </r>
       </set>
      </set>
     </set>
    </set>
   </array>
  </projected>
 </calculation>
 <structure name="finalpos" >
  <crystal>
   <varray name="basis" >
    <v>      -1.35000000       1.35000000       1.35000000 </v>
    <v>       1.35000000      -1.35000000       1.35000000 </v>
    <v>       1.35000000       1.35000000      -1.35000000 </v>
   </varray>
   <i name="volume">      9.84150000 </i>
   <varray name="rec_basis" >
    <v>       0.00000000       0.37037037       0.37037037 </v>
    <v>       0.37037037       0.00000000       0.37037037 </v>
    <v>       0.37037037       0.37037037       0.00000000 </v>
   </varray>
  </crystal>
  <varray name="positions" >
   <v>       0.00000000       0.00000000       0.00000000 </v>
  </varray>
 </structure>
</modeling>
