Fe BCC                                  
   2.76000000000000     
    -0.500000    0.500000    0.500000
     0.500000   -0.500000    0.500000
     0.500000    0.500000   -0.500000
   Fe
     1
Direct
  0.000000  0.000000  0.000000
 
   32   32   32
  88.544      86.595      81.020      72.561      62.245      51.160      40.277      30.346      21.884      15.183    
  10.330      7.2056      5.4904      4.7090      4.3284      4.0912      4.0100      4.0912      4.3284      4.7090    
  5.4904      7.2056      10.330      15.183      21.884      30.346      40.277      51.160      62.245      72.561    
  81.020      86.595      86.595      85.952      81.605      74.145      64.509      53.771      42.935      32.818    
  24.004      16.853      11.514      7.9359      5.8618      4.8634      4.4135      4.1322      3.9993      4.0262    
  4.2108      4.5359      5.1089      6.4104      8.9466      13.095      19.044      26.778      36.080      46.515    
  57.421      67.910      76.936      83.445      81.020      81.605      78.609      72.444      63.909      53.998    
  43.701      33.863      25.113      17.862      12.315      8.4777      6.1577      4.9823      4.4586      4.1448    
  3.9675      3.9421      4.0704      4.3425      4.7644      5.6667      7.5607      10.869      15.850      22.564    
  30.869      40.422      50.662      60.808      69.903      76.936      72.561      74.145      72.444      67.696    
  60.530      51.817      42.480      33.345      25.058      18.062      12.602      8.7319      6.3160      5.0404    
  4.4605      4.1260      3.9151      3.8442      3.9175      4.1311      4.4689      5.0541      6.3398      8.7753    
  12.678      18.185      25.238      33.582      42.761      52.116      60.808      67.910      62.245      64.509    
  63.909      60.530      54.833      47.534      39.449      31.348      23.858      17.430      12.331      8.6500    
  6.2981      5.0175      4.4181      4.0754      3.8434      3.7373      3.7618      3.9165      4.1943      4.5949    
  5.3876      7.0170      9.8443      14.078      19.744      26.679      34.531      42.761      50.662      57.421    
  51.160      53.771      53.998      51.817      47.534      41.707      35.021      28.157      21.697      16.071    
  11.551      8.2455      6.1005      4.9079      4.3327      3.9946      3.7546      3.6253      3.6109      3.7121    
  3.9278      4.2482      4.7250      5.7041      7.5648      10.574      14.839      20.290      26.679      33.582    
  40.422      46.515      40.277      42.935      43.701      42.480      39.449      35.021      29.744      24.192    
  18.876      14.190      10.390      7.5888      5.7562      4.7243      4.2099      3.8881      3.6518      3.5118    
  3.4704      3.5276      3.6848      3.9415      4.2881      4.8375      5.9311      7.8704      10.833      14.839    
  19.744      25.238      30.869      36.080      30.346      32.818      33.863      33.345      31.348      28.157    
  24.192      19.914      15.752      12.045      9.0220      6.7875      5.3236      4.4936      4.0602      3.7622    
  3.5393      3.3997      3.3432      3.3682      3.4762      3.6708      3.9521      4.3146      4.9033      6.0135    
  7.8704      10.574      14.078      18.185      22.564      26.778      21.884      24.004      25.113      25.058    
  23.858      21.697      18.876      15.752      12.664      9.8938      7.6292      5.9596      4.8705      4.2481    
  3.8943      3.6246      3.4224      3.2920      3.2307      3.2354      3.3060      3.4471      3.6641      3.9575    
  4.3242      4.9033      5.9311      7.5648      9.8443      12.678      15.850      19.044      15.183      16.853    
  17.862      18.062      17.430      16.071      14.190      12.045      9.8938      7.9519      6.3674      5.2076    
  4.4555      4.0136      3.7211      3.4835      3.3065      3.1912      3.1333      3.1278      3.1733      3.2732    
  3.4341      3.6622      3.9575      4.3146      4.8375      5.7041      7.0170      8.7753      10.869      13.095    
  10.330      11.514      12.315      12.602      12.331      11.551      10.390      9.0220      7.6292      6.3674    
  5.3427      4.5987      4.1130      3.7998      3.5496      3.3464      3.1970      3.1002      3.0506      3.0427    
  3.0739      3.1454      3.2631      3.4341      3.6641      3.9521      4.2881      4.7250      5.3876      6.3398    
  7.5607      8.9466      7.2056      7.9359      8.4777      8.7319      8.6500      8.2455      7.5888      6.7875    
  5.9596      5.2076      4.5987      4.1541      3.8445      3.5991      3.3881      3.2202      3.0986      3.0212    
  2.9827      2.9776      3.0025      3.0573      3.1454      3.2732      3.4471      3.6708      3.9415      4.2482    
  4.5949      5.0541      5.6667      6.4104      5.4904      5.8618      6.1577      6.3160      6.2981      6.1005    
  5.7562      5.3236      4.8705      4.4555      4.1130      3.8445      3.6175      3.4144      3.2433      3.1098    
  3.0150      2.9566      2.9301      2.9309      2.9554      3.0025      3.0739      3.1733      3.3060      3.4762    
  3.6848      3.9278      4.1943      4.4689      4.7644      5.1089      4.7090      4.8634      4.9823      5.0404    
  5.0175      4.9079      4.7243      4.4936      4.2481      4.0136      3.7998      3.5991      3.4144      3.2529    
  3.1201      3.0186      2.9486      2.9080      2.8938      2.9024      2.9309      2.9776      3.0427      3.1278    
  3.2354      3.3682      3.5276      3.7121      3.9165      4.1311      4.3425      4.5359      4.3284      4.4135    
  4.4586      4.4605      4.4181      4.3327      4.2099      4.0602      3.8943      3.7211      3.5496      3.3881    
  3.2433      3.1201      3.0214      2.9483      2.9006      2.8769      2.8754      2.8938      2.9301      2.9827    
  3.0506      3.1333      3.2307      3.3432      3.4704      3.6109      3.7618      3.9175      4.0704      4.2108    
  4.0912      4.1322      4.1448      4.1260      4.0754      3.9946      3.8881      3.7622      3.6246      3.4835    
  3.3464      3.2202      3.1098      3.0186      2.9483      2.8994      2.8717      2.8645      2.8769      2.9080    
  2.9566      3.0212      3.1002      3.1912      3.2920      3.3997      3.5118      3.6253      3.7373      3.8442    
  3.9421      4.0262      4.0100      3.9993      3.9675      3.9151      3.8434      3.7546      3.6518      3.5393    
  3.4224      3.3065      3.1970      3.0986      3.0150      2.9486      2.9006      2.8717      2.8621      2.8717    
  2.9006      2.9486      3.0150      3.0986      3.1970      3.3065      3.4224      3.5393      3.6518      3.7546    
  3.8434      3.9151      3.9675      3.9993      4.0912      4.0262      3.9421      3.8442      3.7373      3.6253    
  3.5118      3.3997      3.2920      3.1912      3.1002      3.0212      2.9566      2.9080      2.8769      2.8645    
  2.8717      2.8994      2.9483      3.0186      3.1098      3.2202      3.3464      3.4835      3.6246      3.7622    
  3.8881      3.9946      4.0754      4.1260      4.1448      4.1322      4.3284      4.2108      4.0704      3.9175    
  3.7618      3.6109      3.4704      3.3432      3.2307      3.1333      3.0506      2.9827      2.9301      2.8938    
  2.8754      2.8769      2.9006      2.9483      3.0214      3.1201      3.2433      3.3881      3.5496      3.7211    
  3.8943      4.0602      4.2099      4.3327      4.4181      4.4605      4.4586      4.4135      4.7090      4.5359    
  4.3425      4.1311      3.9165      3.7121      3.5276      3.3682      3.2354      3.1278      3.0427      2.9776    
  2.9309      2.9024      2.8938      2.9080      2.9486      3.0186      3.1201      3.2529      3.4144      3.5991    
  3.7998      4.0136      4.2481      4.4936      4.7243      4.9079      5.0175      5.0404      4.9823      4.8634    
  5.4904      5.1089      4.7644      4.4689      4.1943      3.9278      3.6848      3.4762      3.3060      3.1733    
  3.0739      3.0025      2.9554      2.9309      2.9301      2.9566      3.0150      3.1098      3.2433      3.4144    
  3.6175      3.8445      4.1130      4.4555      4.8705      5.3236      5.7562      6.1005      6.2981      6.3160    
  6.1577      5.8618      7.2056      6.4104      5.6667      5.0541      4.5949      4.2482      3.9415      3.6708    
  3.4471      3.2732      3.1454      3.0573      3.0025      2.9776      2.9827      3.0212      3.0986      3.2202    
  3.3881      3.5991      3.8445      4.1541      4.5987      5.2076      5.9596      6.7875      7.5888      8.2455    
  8.6500      8.7319      8.4777      7.9359      10.330      8.9466      7.5607      6.3398      5.3876      4.7250    
  4.2881      3.9521      3.6641      3.4341      3.2631      3.1454      3.0739      3.0427      3.0506      3.1002    
  3.1970      3.3464      3.5496      3.7998      4.1130      4.5987      5.3427      6.3674      7.6292      9.0220    
  10.390      11.551      12.331      12.602      12.315      11.514      15.183      13.095      10.869      8.7753    
  7.0170      5.7041      4.8375      4.3146      3.9575      3.6622      3.4341      3.2732      3.1733      3.1278    
  3.1333      3.1912      3.3065      3.4835      3.7211      4.0136      4.4555      5.2076      6.3674      7.9519    
  9.8938      12.045      14.190      16.071      17.430      18.062      17.862      16.853      21.884      19.044    
  15.850      12.678      9.8443      7.5648      5.9311      4.9033      4.3242      3.9575      3.6641      3.4471    
  3.3060      3.2354      3.2307      3.2920      3.4224      3.6246      3.8943      4.2481      4.8705      5.9596    
  7.6292      9.8938      12.664      15.752      18.876      21.697      23.858      25.058      25.113      24.004    
  30.346      26.778      22.564      18.185      14.078      10.574      7.8704      6.0135      4.9033      4.3146    
  3.9521      3.6708      3.4762      3.3682      3.3432      3.3997      3.5393      3.7622      4.0602      4.4936    
  5.3236      6.7875      9.0220      12.045      15.752      19.914      24.192      28.157      31.348      33.345    
  33.863      32.818      40.277      36.080      30.869      25.238      19.744      14.839      10.833      7.8704    
  5.9311      4.8375      4.2881      3.9415      3.6848      3.5276      3.4704      3.5118      3.6518      3.8881    
  4.2099      4.7243      5.7562      7.5888      10.390      14.190      18.876      24.192      29.744      35.021    
  39.449      42.480      43.701      42.935      51.160      46.515      40.422      33.582      26.679      20.290    
  14.839      10.574      7.5648      5.7041      4.7250      4.2482      3.9278      3.7121      3.6109      3.6253    
  3.7546      3.9946      4.3327      4.9079      6.1005      8.2455      11.551      16.071      21.697      28.157    
  35.021      41.707      47.534      51.817      53.998      53.771      62.245      57.421      50.662      42.761    
  34.531      26.679      19.744      14.078      9.8443      7.0170      5.3876      4.5949      4.1943      3.9165    
  3.7618      3.7373      3.8434      4.0754      4.4181      5.0175      6.2981      8.6500      12.331      17.430    
  23.858      31.348      39.449      47.534      54.833      60.530      63.909      64.509      72.561      67.910    
  60.808      52.116      42.761      33.582      25.238      18.185      12.678      8.7753      6.3398      5.0541    
  4.4689      4.1311      3.9175      3.8442      3.9151      4.1260      4.4605      5.0404      6.3160      8.7319    
  12.602      18.062      25.058      33.345      42.480      51.817      60.530      67.696      72.444      74.145    
  81.020      76.936      69.903      60.808      50.662      40.422      30.869      22.564      15.850      10.869    
  7.5607      5.6667      4.7644      4.3425      4.0704      3.9421      3.9675      4.1448      4.4586      4.9823    
  6.1577      8.4777      12.315      17.862      25.113      33.863      43.701      53.998      63.909      72.444    
  78.609      81.605      86.595      83.445      76.936      67.910      57.421      46.515      36.080      26.778    
  19.044      13.095      8.9466      6.4104      5.1089      4.5359      4.2108      4.0262      3.9993      4.1322    
  4.4135      4.8634      5.8618      7.9359      11.514      16.853      24.004      32.818      42.935      53.771    
  64.509      74.145      81.605      85.952      86.595      85.952      81.605      74.145      64.509      53.771    
  42.935      32.818      24.004      16.853      11.514      7.9359      5.8618      4.8634      4.4135      4.1322    
  3.9993      4.0262      4.2108      4.5359      5.1089      6.4104      8.9466      13.095      19.044      26.778    
  36.080      46.515      57.421      67.910      76.936      83.445      85.952      86.595      83.445      76.936    
  67.910      57.421      46.515      36.080      26.778      19.044      13.095      8.9466      6.4104      5.1089    
  4.5359      4.2108      4.0262      3.9993      4.1322      4.4135      4.8634      5.8618      7.9359      11.514    
  16.853      24.004      32.818      42.935      53.771      64.509      74.145      81.605      81.605      83.445    
  81.605      76.341      68.351      58.606      48.135      37.861      28.499      20.544      14.272      9.7617    
  6.8864      5.3287      4.6222      4.2588      4.0302      3.9521      4.0302      4.2588      4.6222      5.3287    
  6.8864      9.7617      14.272      20.544      28.499      37.861      48.135      58.606      68.351      76.341    
  74.145      76.936      76.341      72.444      65.773      57.165      47.580      37.923      28.932      21.139    
  14.867      10.244      7.2009      5.4806      4.6680      4.2714      4.0096      3.8871      3.9123      4.0837    
  4.3885      4.8725      5.9377      8.0658      11.627      16.819      23.643      31.904      41.206      50.941    
  60.303      68.351      64.509      67.910      68.351      65.773      60.530      53.303      44.934      36.267    
  28.025      20.749      14.789      10.310      7.2896      5.5270      4.6632      4.2458      3.9637      3.8072    
  3.7859      3.9009      4.1467      4.5099      5.1801      6.6113      9.2081      13.233      18.767      25.701    
  33.736      42.377      50.941      58.606      53.771      57.421      58.606      57.165      53.303      47.534    
  40.562      33.133      25.918      19.441      14.056      9.9483      7.1307      5.4493      4.6008      4.1830    
  3.8933      3.7151      3.6573      3.7217      3.9072      4.2057      4.6353      5.5042      7.2245      10.109    
  14.314      19.820      26.422      33.736      41.206      48.135      42.935      46.515      48.135      47.580    
  44.934      40.562      35.021      28.940      22.910      17.413      12.789      9.2229      6.7504      5.2548    
  4.4830      4.0864      3.8011      3.6137      3.5313      3.5547      3.6846      3.9203      4.2519      4.7559    
  5.7764      7.6520      10.604      14.695      19.820      25.701      31.904      37.861      32.818      36.080    
  37.861      37.923      36.267      33.133      28.940      24.192      19.388      14.948      11.178      8.2529    
  6.2149      4.9747      4.3224      3.9625      3.6915      3.5064      3.4113      3.4055      3.4892      3.6648    
  3.9326      4.2843      4.8451      5.9316      7.8052      10.604      14.314      18.767      23.643      28.499    
  24.004      26.778      28.499      28.932      28.025      25.918      22.910      19.388      15.752      12.350    
  9.4433      7.1837      5.6113      4.6542      4.1380      3.8194      3.5703      3.3967      3.2997      3.2763    
  3.3255      3.4501      3.6549      3.9404      4.3022      4.8781      5.9316      7.6520      10.109      13.233    
  16.819      20.544      16.853      19.044      20.544      21.139      20.749      19.441      17.413      14.948    
  12.350      9.8938      7.7876      6.1547      5.0256      4.3383      3.9470      3.6662      3.4443      3.2887    
  3.1979      3.1672      3.1938      3.2794      3.4297      3.6507      3.9430      4.3022      4.8451      5.7764    
  7.2245      9.2081      11.627      14.272      11.514      13.095      14.272      14.867      14.789      14.056    
  12.789      11.178      9.4433      7.7876      6.3674      5.2734      4.5227      4.0582      3.7573      3.5117    
  3.3202      3.1866      3.1074      3.0770      3.0913      3.1503      3.2586      3.4234      3.6507      3.9404    
  4.2843      4.7559      5.5042      6.6113      8.0658      9.7617      7.9359      8.9466      9.7617      10.244    
  10.310      9.9483      9.2229      8.2529      7.1837      6.1547      5.2734      4.5987      4.1328      3.8210    
  3.5724      3.3641      3.2043      3.0941      3.0293      3.0042      3.0140      3.0573      3.1368      3.2586    
  3.4297      3.6549      3.9326      4.2519      4.6353      5.1801      5.9377      6.8864      5.8618      6.4104    
  6.8864      7.2009      7.2896      7.1307      6.7504      6.2149      5.6113      5.0256      4.5227      4.1328    
  3.8445      3.6081      3.4003      3.2299      3.1014      3.0144      2.9650      2.9479      2.9586      2.9947    
  3.0573      3.1503      3.2794      3.4501      3.6648      3.9203      4.2057      4.5099      4.8725      5.3287    
  4.8634      5.1089      5.3287      5.4806      5.5270      5.4493      5.2548      4.9747      4.6542      4.3383    
  4.0582      3.8210      3.6081      3.4144      3.2479      3.1141      3.0152      2.9501      2.9158      2.9080    
  2.9231      2.9586      3.0140      3.0913      3.1938      3.3255      3.4892      3.6846      3.9072      4.1467    
  4.3885      4.6222      4.4135      4.5359      4.6222      4.6680      4.6632      4.6008      4.4830      4.3224    
  4.1380      3.9470      3.7573      3.5724      3.4003      3.2479      3.1201      3.0198      2.9477      2.9029    
  2.8831      2.8857      2.9080      2.9479      3.0042      3.0770      3.1672      3.2763      3.4055      3.5547    
  3.7217      3.9009      4.0837      4.2588      4.1322      4.2108      4.2588      4.2714      4.2458      4.1830    
  4.0864      3.9625      3.8194      3.6662      3.5117      3.3641      3.2299      3.1141      3.0198      2.9483    
  2.8998      2.8737      2.8686      2.8831      2.9158      2.9650      3.0293      3.1074      3.1979      3.2997    
  3.4113      3.5313      3.6573      3.7859      3.9123      4.0302      3.9993      4.0262      4.0302      4.0096    
  3.9637      3.8933      3.8011      3.6915      3.5703      3.4443      3.3202      3.2043      3.1014      3.0152    
  2.9477      2.8998      2.8717      2.8631      2.8737      2.9029      2.9501      3.0144      3.0941      3.1866    
  3.2887      3.3967      3.5064      3.6137      3.7151      3.8072      3.8871      3.9521      4.0262      3.9993    
  3.9521      3.8871      3.8072      3.7151      3.6137      3.5064      3.3967      3.2887      3.1866      3.0941    
  3.0144      2.9501      2.9029      2.8737      2.8631      2.8717      2.8998      2.9477      3.0152      3.1014    
  3.2043      3.3202      3.4443      3.5703      3.6915      3.8011      3.8933      3.9637      4.0096      4.0302    
  4.2108      4.1322      4.0302      3.9123      3.7859      3.6573      3.5313      3.4113      3.2997      3.1979    
  3.1074      3.0293      2.9650      2.9158      2.8831      2.8686      2.8737      2.8998      2.9483      3.0198    
  3.1141      3.2299      3.3641      3.5117      3.6662      3.8194      3.9625      4.0864      4.1830      4.2458    
  4.2714      4.2588      4.5359      4.4135      4.2588      4.0837      3.9009      3.7217      3.5547      3.4055    
  3.2763      3.1672      3.0770      3.0042      2.9479      2.9080      2.8857      2.8831      2.9029      2.9477    
  3.0198      3.1201      3.2479      3.4003      3.5724      3.7573      3.9470      4.1380      4.3224      4.4830    
  4.6008      4.6632      4.6680      4.6222      5.1089      4.8634      4.6222      4.3885      4.1467      3.9072    
  3.6846      3.4892      3.3255      3.1938      3.0913      3.0140      2.9586      2.9231      2.9080      2.9158    
  2.9501      3.0152      3.1141      3.2479      3.4144      3.6081      3.8210      4.0582      4.3383      4.6542    
  4.9747      5.2548      5.4493      5.5270      5.4806      5.3287      6.4104      5.8618      5.3287      4.8725    
  4.5099      4.2057      3.9203      3.6648      3.4501      3.2794      3.1503      3.0573      2.9947      2.9586    
  2.9479      2.9650      3.0144      3.1014      3.2299      3.4003      3.6081      3.8445      4.1328      4.5227    
  5.0256      5.6113      6.2149      6.7504      7.1307      7.2896      7.2009      6.8864      8.9466      7.9359    
  6.8864      5.9377      5.1801      4.6353      4.2519      3.9326      3.6549      3.4297      3.2586      3.1368    
  3.0573      3.0140      3.0042      3.0293      3.0941      3.2043      3.3641      3.5724      3.8210      4.1328    
  4.5987      5.2734      6.1547      7.1837      8.2529      9.2229      9.9483      10.310      10.244      9.7617    
  13.095      11.514      9.7617      8.0658      6.6113      5.5042      4.7559      4.2843      3.9404      3.6507    
  3.4234      3.2586      3.1503      3.0913      3.0770      3.1074      3.1866      3.3202      3.5117      3.7573    
  4.0582      4.5227      5.2734      6.3674      7.7876      9.4433      11.178      12.789      14.056      14.789    
  14.867      14.272      19.044      16.853      14.272      11.627      9.2081      7.2245      5.7764      4.8451    
  4.3022      3.9430      3.6507      3.4297      3.2794      3.1938      3.1672      3.1979      3.2887      3.4443    
  3.6662      3.9470      4.3383      5.0256      6.1547      7.7876      9.8938      12.350      14.948      17.413    
  19.441      20.749      21.139      20.544      26.778      24.004      20.544      16.819      13.233      10.109    
  7.6520      5.9316      4.8781      4.3022      3.9404      3.6549      3.4501      3.3255      3.2763      3.2997    
  3.3967      3.5703      3.8194      4.1380      4.6542      5.6113      7.1837      9.4433      12.350      15.752    
  19.388      22.910      25.918      28.025      28.932      28.499      36.080      32.818      28.499      23.643    
  18.767      14.314      10.604      7.8052      5.9316      4.8451      4.2843      3.9326      3.6648      3.4892    
  3.4055      3.4113      3.5064      3.6915      3.9625      4.3224      4.9747      6.2149      8.2529      11.178    
  14.948      19.388      24.192      28.940      33.133      36.267      37.923      37.861      46.515      42.935    
  37.861      31.904      25.701      19.820      14.695      10.604      7.6520      5.7764      4.7559      4.2519    
  3.9203      3.6846      3.5547      3.5313      3.6137      3.8011      4.0864      4.4830      5.2548      6.7504    
  9.2229      12.789      17.413      22.910      28.940      35.021      40.562      44.934      47.580      48.135    
  57.421      53.771      48.135      41.206      33.736      26.422      19.820      14.314      10.109      7.2245    
  5.5042      4.6353      4.2057      3.9072      3.7217      3.6573      3.7151      3.8933      4.1830      4.6008    
  5.4493      7.1307      9.9483      14.056      19.441      25.918      33.133      40.562      47.534      53.303    
  57.165      58.606      67.910      64.509      58.606      50.941      42.377      33.736      25.701      18.767    
  13.233      9.2081      6.6113      5.1801      4.5099      4.1467      3.9009      3.7859      3.8072      3.9637    
  4.2458      4.6632      5.5270      7.2896      10.310      14.789      20.749      28.025      36.267      44.934    
  53.303      60.530      65.773      68.351      76.936      74.145      68.351      60.303      50.941      41.206    
  31.904      23.643      16.819      11.627      8.0658      5.9377      4.8725      4.3885      4.0837      3.9123    
  3.8871      4.0096      4.2714      4.6680      5.4806      7.2009      10.244      14.867      21.139      28.932    
  37.923      47.580      57.165      65.773      72.444      76.341      83.445      81.605      76.341      68.351    
  58.606      48.135      37.861      28.499      20.544      14.272      9.7617      6.8864      5.3287      4.6222    
  4.2588      4.0302      3.9521      4.0302      4.2588      4.6222      5.3287      6.8864      9.7617      14.272    
  20.544      28.499      37.861      48.135      58.606      68.351      76.341      81.605      81.020      81.605    
  78.609      72.444      63.909      53.998      43.701      33.863      25.113      17.862      12.315      8.4777    
  6.1577      4.9823      4.4586      4.1448      3.9675      3.9421      4.0704      4.3425      4.7644      5.6667    
  7.5607      10.869      15.850      22.564      30.869      40.422      50.662      60.808      69.903      76.936    
  81.605      83.445      81.605      76.341      68.351      58.606      48.135      37.861      28.499      20.544    
  14.272      9.7617      6.8864      5.3287      4.6222      4.2588      4.0302      3.9521      4.0302      4.2588    
  4.6222      5.3287      6.8864      9.7617      14.272      20.544      28.499      37.861      48.135      58.606    
  68.351      76.341      78.609      81.605      81.020      76.936      69.903      60.808      50.662      40.422    
  30.869      22.564      15.850      10.869      7.5607      5.6667      4.7644      4.3425      4.0704      3.9421    
  3.9675      4.1448      4.4586      4.9823      6.1577      8.4777      12.315      17.862      25.113      33.863    
  43.701      53.998      63.909      72.444      72.444      76.341      76.936      74.145      68.351      60.303    
  50.941      41.206      31.904      23.643      16.819      11.627      8.0658      5.9377      4.8725      4.3885    
  4.0837      3.9123      3.8871      4.0096      4.2714      4.6680      5.4806      7.2009      10.244      14.867    
  21.139      28.932      37.923      47.580      57.165      65.773      63.909      68.351      69.903      68.351    
  63.909      57.165      48.939      40.108      31.464      23.629      17.033      11.911      8.3084      6.0845    
  4.9249      4.3924      4.0675      3.8632      3.7940      3.8632      4.0675      4.3924      4.9249      6.0845    
  8.3084      11.911      17.033      23.629      31.464      40.108      48.939      57.165      53.998      58.606    
  60.808      60.303      57.165      51.817      44.934      37.290      29.621      22.534      16.466      11.675    
  8.2412      6.0708      4.9035      4.3537      4.0208      3.7957      3.6924      3.7145      3.8616      4.1278    
  4.5059      5.2197      6.6952      9.2864      13.203      18.480      24.971      32.349      40.108      47.580    
  43.701      48.135      50.662      50.941      48.939      44.934      39.449      33.133      26.638      20.525    
  15.211      10.961      7.8747      5.8926      4.8033      4.2742      3.9453      3.7119      3.5862      3.5708    
  3.6661      3.8716      4.1793      4.6194      5.5004      7.1911      9.9554      13.906      18.987      24.971    
  31.464      37.923      33.863      37.861      40.422      41.206      40.108      37.290      33.133      28.157    
  22.910      17.884      13.460      9.8880      7.2730      5.5793      4.6353      4.1592      3.8449      3.6147    
  3.4784      3.4370      3.4901      3.6390      3.8839      4.2162      4.7167      5.7025      7.4683      10.193    
  13.906      18.480      23.629      28.932      25.113      28.499      30.869      31.904      31.464      29.621    
  26.638      22.910      18.876      14.948      11.456      8.6186      6.5359      5.1844      4.4240      4.0179    
  3.7255      3.5081      3.3721      3.3161      3.3383      3.4398      3.6245      3.8934      4.2394      4.7736    
  5.7760      7.4683      9.9554      13.203      17.033      21.139      17.862      20.544      22.564      23.643    
  23.629      22.534      20.525      17.884      14.948      12.045      9.4433      7.3250      5.7736      4.7702    
  4.1978      3.8595      3.5946      3.3971      3.2698      3.2094      3.2120      3.2779      3.4111      3.6175    
  3.8983      4.2475      4.7736      5.7025      7.1911      9.2864      11.911      14.867      12.315      14.272    
  15.850      16.819      17.033      16.466      15.211      13.460      11.456      9.4433      7.6292      6.1547    
  5.0819      4.3900      3.9793      3.6933      3.4600      3.2869      3.1742      3.1169      3.1100      3.1519    
  3.2458      3.3981      3.6153      3.8983      4.2394      4.7167      5.5004      6.6952      8.3084      10.244    
  8.4777      9.7617      10.869      11.627      11.911      11.675      10.961      9.8880      8.6186      7.3250    
  6.1547      5.2076      4.5227      4.0742      3.7750      3.5283      3.3291      3.1828      3.0878      3.0386    
  3.0296      3.0578      3.1248      3.2357      3.3981      3.6175      3.8934      4.2162      4.6194      5.2197    
  6.0845      7.2009      6.1577      6.8864      7.5607      8.0658      8.3084      8.2412      7.8747      7.2730    
  6.5359      5.7736      5.0819      4.5227      4.1130      3.8210      3.5799      3.3728      3.2083      3.0892    