Fe BCC                                  
   2.76000000000000     
    -0.500000    0.500000    0.500000
     0.500000   -0.500000    0.500000
     0.500000    0.500000   -0.500000
   Fe
     1
Direct
  0.000000  0.000000  0.000000
 
   32   32   32
 0.88543989417E+02 0.86595268989E+02 0.81020426009E+02 0.72561294196E+02 0.62244848042E+02
 0.51160145030E+02 0.40276566516E+02 0.30346336405E+02 0.21884086336E+02 0.15183259319E+02
 0.10330309180E+02 0.72056117008E+01 0.54904070096E+01 0.47089808860E+01 0.43283517677E+01
 0.40912439018E+01 0.40099617563E+01 0.40912439018E+01 0.43283517677E+01 0.47089808860E+01
 0.54904070096E+01 0.72056117008E+01 0.10330309180E+02 0.15183259319E+02 0.21884086336E+02
 0.30346336405E+02 0.40276566516E+02 0.51160145030E+02 0.62244848042E+02 0.72561294196E+02
 0.81020426009E+02 0.86595268989E+02 0.86595268989E+02 0.85951918596E+02 0.81605191106E+02
 0.74144910245E+02 0.64509475447E+02 0.53770539694E+02 0.42934557155E+02 0.32817903629E+02
 0.24004320849E+02 0.16852878036E+02 0.11514494858E+02 0.79359233953E+01 0.58618443585E+01
 0.48634056070E+01 0.44134898691E+01 0.41322310856E+01 0.39993047972E+01 0.40261605365E+01
 0.42107545647E+01 0.45358723185E+01 0.51088576982E+01 0.64104194263E+01 0.89466334535E+01
 0.13094565988E+02 0.19043515575E+02 0.26778355584E+02 0.36079549030E+02 0.46514713725E+02
 0.57421226429E+02 0.67910381658E+02 0.76935554096E+02 0.83445215304E+02 0.81020426009E+02
 0.81605191106E+02 0.78608908334E+02 0.72443930717E+02 0.63908787591E+02 0.53997726872E+02
 0.43701488747E+02 0.33863242162E+02 0.25113138132E+02 0.17861963509E+02 0.12314853740E+02
 0.84776869135E+01 0.61577182179E+01 0.49822832810E+01 0.44586463485E+01 0.41447643422E+01
 0.39674992401E+01 0.39421020179E+01 0.40703592665E+01 0.43425405595E+01 0.47644156710E+01
 0.56667320289E+01 0.75606807722E+01 0.10869411697E+02 0.15850366605E+02 0.22563917032E+02
 0.30869369545E+02 0.40422179830E+02 0.50661656487E+02 0.60807527688E+02 0.69903320273E+02
 0.76935554096E+02 0.72561294196E+02 0.74144910245E+02 0.72443930717E+02 0.67695692913E+02
 0.60530443714E+02 0.51817314502E+02 0.42479825118E+02 0.33344697888E+02 0.25057966617E+02
 0.18062027838E+02 0.12601950297E+02 0.87319370621E+01 0.63160226178E+01 0.50404364160E+01
 0.44604608593E+01 0.41260211902E+01 0.39151313367E+01 0.38442393091E+01 0.39175073263E+01
 0.41311100853E+01 0.44689452758E+01 0.50540512159E+01 0.63397928912E+01 0.87753425137E+01
 0.12678236124E+02 0.18185232110E+02 0.25238035330E+02 0.33582046978E+02 0.42761329998E+02
 0.52115610690E+02 0.60807527688E+02 0.67910381658E+02 0.62244848042E+02 0.64509475447E+02
 0.63908787591E+02 0.60530443714E+02 0.54833386301E+02 0.47534297701E+02 0.39449197556E+02
 0.31347564751E+02 0.23857948116E+02 0.17430043199E+02 0.12331129970E+02 0.86500499620E+01
 0.62980747316E+01 0.50175162430E+01 0.44181440273E+01 0.40753513754E+01 0.38434375316E+01
 0.37372955347E+01 0.37617870887E+01 0.39165340820E+01 0.41943219893E+01 0.45948814140E+01
 0.53876130298E+01 0.70170093312E+01 0.98442656500E+01 0.14077804810E+02 0.19743597458E+02
 0.26678791090E+02 0.34531277414E+02 0.42761329998E+02 0.50661656487E+02 0.57421226429E+02
 0.51160145030E+02 0.53770539694E+02 0.53997726872E+02 0.51817314502E+02 0.47534297701E+02
 0.41707202981E+02 0.35021209373E+02 0.28157357605E+02 0.21696529385E+02 0.16071033359E+02
 0.11551266857E+02 0.82455317526E+01 0.61005448481E+01 0.49079260605E+01 0.43326704252E+01
 0.39946133817E+01 0.37545672596E+01 0.36253348361E+01 0.36109477265E+01 0.37121469631E+01
 0.39277564670E+01 0.42482207307E+01 0.47250045960E+01 0.57040807240E+01 0.75648395032E+01
 0.10574017277E+02 0.14839061062E+02 0.20290264302E+02 0.26678791090E+02 0.33582046978E+02
 0.40422179830E+02 0.46514713725E+02 0.40276566516E+02 0.42934557155E+02 0.43701488747E+02
 0.42479825118E+02 0.39449197556E+02 0.35021209373E+02 0.29743967219E+02 0.24192002699E+02
 0.18876149470E+02 0.14190247040E+02 0.10390107155E+02 0.75887793755E+01 0.57561636004E+01
 0.47242780576E+01 0.42099101542E+01 0.38881252081E+01 0.36517556724E+01 0.35118079673E+01
 0.34703824419E+01 0.35275933900E+01 0.36848262128E+01 0.39415028427E+01 0.42880949697E+01
 0.48375017024E+01 0.59311022888E+01 0.78703522652E+01 0.10832708096E+02 0.14839061062E+02
 0.19743597458E+02 0.25238035330E+02 0.30869369545E+02 0.36079549030E+02 0.30346336405E+02
 0.32817903629E+02 0.33863242162E+02 0.33344697888E+02 0.31347564751E+02 0.28157357605E+02
 0.24192002699E+02 0.19914091183E+02 0.15751663625E+02 0.12045214307E+02 0.90220031836E+01
 0.67874504478E+01 0.53235940066E+01 0.44935958322E+01 0.40602059596E+01 0.37622404647E+01
 0.35393103753E+01 0.33997469062E+01 0.33432026052E+01 0.33681935677E+01 0.34761829258E+01
 0.36707623864E+01 0.39520723260E+01 0.43146261470E+01 0.49032989098E+01 0.60135387884E+01
 0.78703522652E+01 0.10574017277E+02 0.14077804810E+02 0.18185232110E+02 0.22563917032E+02
 0.26778355584E+02 0.21884086336E+02 0.24004320849E+02 0.25113138132E+02 0.25057966617E+02
 0.23857948116E+02 0.21696529385E+02 0.18876149470E+02 0.15751663625E+02 0.12664480129E+02
 0.98937644353E+01 0.76291620398E+01 0.59595727661E+01 0.48705137657E+01 0.42480564442E+01
 0.38943332451E+01 0.36246383077E+01 0.34223723346E+01 0.32919745346E+01 0.32307424028E+01
 0.32353646157E+01 0.33060437787E+01 0.34471401807E+01 0.36641317987E+01 0.39574504649E+01
 0.43242209272E+01 0.49032989098E+01 0.59311022888E+01 0.75648395032E+01 0.98442656500E+01
 0.12678236124E+02 0.15850366605E+02 0.19043515575E+02 0.15183259319E+02 0.16852878036E+02
 0.17861963509E+02 0.18062027838E+02 0.17430043199E+02 0.16071033359E+02 0.14190247040E+02
 0.12045214307E+02 0.98937644353E+01 0.79518869620E+01 0.63674098367E+01 0.52075527867E+01
 0.44554553215E+01 0.40136120410E+01 0.37210700773E+01 0.34834608052E+01 0.33064770142E+01
 0.31912266100E+01 0.31332538186E+01 0.31277684715E+01 0.31733429942E+01 0.32732405370E+01
 0.34341166369E+01 0.36621686196E+01 0.39574504649E+01 0.43146261470E+01 0.48375017024E+01
 0.57040807240E+01 0.70170093312E+01 0.87753425137E+01 0.10869411697E+02 0.13094565988E+02
 0.10330309180E+02 0.11514494858E+02 0.12314853740E+02 0.12601950297E+02 0.12331129970E+02
 0.11551266857E+02 0.10390107155E+02 0.90220031836E+01 0.76291620398E+01 0.63674098367E+01
 0.53426963822E+01 0.45987156486E+01 0.41129839871E+01 0.37998177595E+01 0.35495966925E+01
 0.33464491777E+01 0.31970036208E+01 0.31001502403E+01 0.30505840764E+01 0.30427427082E+01
 0.30738541601E+01 0.31454448420E+01 0.32630581877E+01 0.34341166369E+01 0.36641317987E+01
 0.39520723260E+01 0.42880949697E+01 0.47250045960E+01 0.53876130298E+01 0.63397928912E+01
 0.75606807722E+01 0.89466334535E+01 0.72056117008E+01 0.79359233953E+01 0.84776869135E+01
 0.87319370621E+01 0.86500499620E+01 0.82455317526E+01 0.75887793755E+01 0.67874504478E+01
 0.59595727661E+01 0.52075527867E+01 0.45987156486E+01 0.41540783016E+01 0.38444536684E+01
 0.35991224848E+01 0.33881317722E+01 0.32202257186E+01 0.30986429637E+01 0.30212095409E+01
 0.29827114472E+01 0.29776425343E+01 0.30025165275E+01 0.30572604872E+01 0.31454448420E+01
 0.32732405370E+01 0.34471401807E+01 0.36707623864E+01 0.39415028427E+01 0.42482207307E+01
 0.45948814140E+01 0.50540512159E+01 0.56667320289E+01 0.64104194263E+01 0.54904070096E+01
 0.58618443585E+01 0.61577182179E+01 0.63160226178E+01 0.62980747316E+01 0.61005448481E+01
 0.57561636004E+01 0.53235940066E+01 0.48705137657E+01 0.44554553215E+01 0.41129839871E+01
 0.38444536684E+01 0.36174743570E+01 0.34143599550E+01 0.32433478237E+01 0.31098363427E+01
 0.30150192229E+01 0.29565666427E+01 0.29300864962E+01 0.29308545678E+01 0.29553823930E+01
 0.30025165275E+01 0.30738541601E+01 0.31733429942E+01 0.33060437787E+01 0.34761829258E+01
 0.36848262128E+01 0.39277564670E+01 0.41943219893E+01 0.44689452758E+01 0.47644156710E+01
 0.51088576982E+01 0.47089808860E+01 0.48634056070E+01 0.49822832810E+01 0.50404364160E+01
 0.50175162430E+01 0.49079260605E+01 0.47242780576E+01 0.44935958322E+01 0.42480564442E+01
 0.40136120410E+01 0.37998177595E+01 0.35991224848E+01 0.34143599550E+01 0.32529230721E+01
 0.31201043349E+01 0.30186073411E+01 0.29485570013E+01 0.29080069429E+01 0.28937691568E+01
 0.29023540093E+01 0.29308545678E+01 0.29776425343E+01 0.30427427082E+01 0.31277684715E+01
 0.32353646157E+01 0.33681935677E+01 0.35275933900E+01 0.37121469631E+01 0.39165340820E+01
 0.41311100853E+01 0.43425405595E+01 0.45358723185E+01 0.43283517677E+01 0.44134898691E+01
 0.44586463485E+01 0.44604608593E+01 0.44181440273E+01 0.43326704252E+01 0.42099101542E+01
 0.40602059596E+01 0.38943332451E+01 0.37210700773E+01 0.35495966925E+01 0.33881317722E+01
 0.32433478237E+01 0.31201043349E+01 0.30213605718E+01 0.29482930410E+01 0.29006039406E+01
 0.28769488451E+01 0.28753849482E+01 0.28937691568E+01 0.29300864962E+01 0.29827114472E+01
 0.30505840764E+01 0.31332538186E+01 0.32307424028E+01 0.33432026052E+01 0.34703824419E+01
 0.36109477265E+01 0.37617870887E+01 0.39175073263E+01 0.40703592665E+01 0.42107545647E+01
 0.40912439018E+01 0.41322310856E+01 0.41447643422E+01 0.41260211902E+01 0.40753513754E+01
 0.39946133817E+01 0.38881252081E+01 0.37622404647E+01 0.36246383077E+01 0.34834608052E+01
 0.33464491777E+01 0.32202257186E+01 0.31098363427E+01 0.30186073411E+01 0.29482930410E+01
 0.28994245406E+01 0.28717341998E+01 0.28645324698E+01 0.28769488451E+01 0.29080069429E+01
 0.29565666427E+01 0.30212095409E+01 0.31001502403E+01 0.31912266100E+01 0.32919745346E+01
 0.33997469062E+01 0.35118079673E+01 0.36253348361E+01 0.37372955347E+01 0.38442393091E+01
 0.39421020179E+01 0.40261605365E+01 0.40099617563E+01 0.39993047972E+01 0.39674992401E+01
 0.39151313367E+01 0.38434375316E+01 0.37545672596E+01 0.36517556724E+01 0.35393103753E+01
 0.34223723346E+01 0.33064770142E+01 0.31970036208E+01 0.30986429637E+01 0.30150192229E+01
 0.29485570013E+01 0.29006039406E+01 0.28717341998E+01 0.28621050132E+01 0.28717341998E+01
 0.29006039406E+01 0.29485570013E+01 0.30150192229E+01 0.30986429637E+01 0.31970036208E+01
 0.33064770142E+01 0.34223723346E+01 0.35393103753E+01 0.36517556724E+01 0.37545672596E+01
 0.38434375316E+01 0.39151313367E+01 0.39674992401E+01 0.39993047972E+01 0.40912439018E+01
 0.40261605365E+01 0.39421020179E+01 0.38442393091E+01 0.37372955347E+01 0.36253348361E+01
 0.35118079673E+01 0.33997469062E+01 0.32919745346E+01 0.31912266100E+01 0.31001502403E+01
 0.30212095409E+01 0.29565666427E+01 0.29080069429E+01 0.28769488451E+01 0.28645324698E+01
 0.28717341998E+01 0.28994245406E+01 0.29482930410E+01 0.30186073411E+01 0.31098363427E+01
 0.32202257186E+01 0.33464491777E+01 0.34834608052E+01 0.36246383077E+01 0.37622404647E+01
 0.38881252081E+01 0.39946133817E+01 0.40753513754E+01 0.41260211902E+01 0.41447643422E+01
 0.41322310856E+01 0.43283517677E+01 0.42107545647E+01 0.40703592665E+01 0.39175073263E+01
 0.37617870887E+01 0.36109477265E+01 0.34703824419E+01 0.33432026052E+01 0.32307424028E+01
 0.31332538186E+01 0.30505840764E+01 0.29827114472E+01 0.29300864962E+01 0.28937691568E+01
 0.28753849482E+01 0.28769488451E+01 0.29006039406E+01 0.29482930410E+01 0.30213605718E+01
 0.31201043349E+01 0.32433478237E+01 0.33881317722E+01 0.35495966925E+01 0.37210700773E+01
 0.38943332451E+01 0.40602059596E+01 0.42099101542E+01 0.43326704252E+01 0.44181440273E+01
 0.44604608593E+01 0.44586463485E+01 0.44134898691E+01 0.47089808860E+01 0.45358723185E+01
 0.43425405595E+01 0.41311100853E+01 0.39165340820E+01 0.37121469631E+01 0.35275933900E+01
 0.33681935677E+01 0.32353646157E+01 0.31277684715E+01 0.30427427082E+01 0.29776425343E+01
 0.29308545678E+01 0.29023540093E+01 0.28937691568E+01 0.29080069429E+01 0.29485570013E+01
 0.30186073411E+01 0.31201043349E+01 0.32529230721E+01 0.34143599550E+01 0.35991224848E+01
 0.37998177595E+01 0.40136120410E+01 0.42480564442E+01 0.44935958322E+01 0.47242780576E+01
 0.49079260605E+01 0.50175162430E+01 0.50404364160E+01 0.49822832810E+01 0.48634056070E+01
 0.54904070096E+01 0.51088576982E+01 0.47644156710E+01 0.44689452758E+01 0.41943219893E+01
 0.39277564670E+01 0.36848262128E+01 0.34761829258E+01 0.33060437787E+01 0.31733429942E+01
 0.30738541601E+01 0.30025165275E+01 0.29553823930E+01 0.29308545678E+01 0.29300864962E+01
 0.29565666427E+01 0.30150192229E+01 0.31098363427E+01 0.32433478237E+01 0.34143599550E+01
 0.36174743570E+01 0.38444536684E+01 0.41129839871E+01 0.44554553215E+01 0.48705137657E+01
 0.53235940066E+01 0.57561636004E+01 0.61005448481E+01 0.62980747316E+01 0.63160226178E+01
 0.61577182179E+01 0.58618443585E+01 0.72056117008E+01 0.64104194263E+01 0.56667320289E+01
 0.50540512159E+01 0.45948814140E+01 0.42482207307E+01 0.39415028427E+01 0.36707623864E+01
 0.34471401807E+01 0.32732405370E+01 0.31454448420E+01 0.30572604872E+01 0.30025165275E+01
 0.29776425343E+01 0.29827114472E+01 0.30212095409E+01 0.30986429637E+01 0.32202257186E+01
 0.33881317722E+01 0.35991224848E+01 0.38444536684E+01 0.41540783016E+01 0.45987156486E+01
 0.52075527867E+01 0.59595727661E+01 0.67874504478E+01 0.75887793755E+01 0.82455317526E+01
 0.86500499620E+01 0.87319370621E+01 0.84776869135E+01 0.79359233953E+01 0.10330309180E+02
 0.89466334535E+01 0.75606807722E+01 0.63397928912E+01 0.53876130298E+01 0.47250045960E+01
 0.42880949697E+01 0.39520723260E+01 0.36641317987E+01 0.34341166369E+01 0.32630581877E+01
 0.31454448420E+01 0.30738541601E+01 0.30427427082E+01 0.30505840764E+01 0.31001502403E+01
 0.31970036208E+01 0.33464491777E+01 0.35495966925E+01 0.37998177595E+01 0.41129839871E+01
 0.45987156486E+01 0.53426963822E+01 0.63674098367E+01 0.76291620398E+01 0.90220031836E+01
 0.10390107155E+02 0.11551266857E+02 0.12331129970E+02 0.12601950297E+02 0.12314853740E+02
 0.11514494858E+02 0.15183259319E+02 0.13094565988E+02 0.10869411697E+02 0.87753425137E+01
 0.70170093312E+01 0.57040807240E+01 0.48375017024E+01 0.43146261470E+01 0.39574504649E+01
 0.36621686196E+01 0.34341166369E+01 0.32732405370E+01 0.31733429942E+01 0.31277684715E+01
 0.31332538186E+01 0.31912266100E+01 0.33064770142E+01 0.34834608052E+01 0.37210700773E+01
 0.40136120410E+01 0.44554553215E+01 0.52075527867E+01 0.63674098367E+01 0.79518869620E+01
 0.98937644353E+01 0.12045214307E+02 0.14190247040E+02 0.16071033359E+02 0.17430043199E+02
 0.18062027838E+02 0.17861963509E+02 0.16852878036E+02 0.21884086336E+02 0.19043515575E+02
 0.15850366605E+02 0.12678236124E+02 0.98442656500E+01 0.75648395032E+01 0.59311022888E+01
 0.49032989098E+01 0.43242209272E+01 0.39574504649E+01 0.36641317987E+01 0.34471401807E+01
 0.33060437787E+01 0.32353646157E+01 0.32307424028E+01 0.32919745346E+01 0.34223723346E+01
 0.36246383077E+01 0.38943332451E+01 0.42480564442E+01 0.48705137657E+01 0.59595727661E+01
 0.76291620398E+01 0.98937644353E+01 0.12664480129E+02 0.15751663625E+02 0.18876149470E+02
 0.21696529385E+02 0.23857948116E+02 0.25057966617E+02 0.25113138132E+02 0.24004320849E+02
 0.30346336405E+02 0.26778355584E+02 0.22563917032E+02 0.18185232110E+02 0.14077804810E+02
 0.10574017277E+02 0.78703522652E+01 0.60135387884E+01 0.49032989098E+01 0.43146261470E+01
 0.39520723260E+01 0.36707623864E+01 0.34761829258E+01 0.33681935677E+01 0.33432026052E+01
 0.33997469062E+01 0.35393103753E+01 0.37622404647E+01 0.40602059596E+01 0.44935958322E+01
 0.53235940066E+01 0.67874504478E+01 0.90220031836E+01 0.12045214307E+02 0.15751663625E+02
 0.19914091183E+02 0.24192002699E+02 0.28157357605E+02 0.31347564751E+02 0.33344697888E+02
 0.33863242162E+02 0.32817903629E+02 0.40276566516E+02 0.36079549030E+02 0.30869369545E+02
 0.25238035330E+02 0.19743597458E+02 0.14839061062E+02 0.10832708096E+02 0.78703522652E+01
 0.59311022888E+01 0.48375017024E+01 0.42880949697E+01 0.39415028427E+01 0.36848262128E+01
 0.35275933900E+01 0.34703824419E+01 0.35118079673E+01 0.36517556724E+01 0.38881252081E+01
 0.42099101542E+01 0.47242780576E+01 0.57561636004E+01 0.75887793755E+01 0.10390107155E+02
 0.14190247040E+02 0.18876149470E+02 0.24192002699E+02 0.29743967219E+02 0.35021209373E+02
 0.39449197556E+02 0.42479825118E+02 0.43701488747E+02 0.42934557155E+02 0.51160145030E+02
 0.46514713725E+02 0.40422179830E+02 0.33582046978E+02 0.26678791090E+02 0.20290264302E+02
 0.14839061062E+02 0.10574017277E+02 0.75648395032E+01 0.57040807240E+01 0.47250045960E+01
 0.42482207307E+01 0.39277564670E+01 0.37121469631E+01 0.36109477265E+01 0.36253348361E+01
 0.37545672596E+01 0.39946133817E+01 0.43326704252E+01 0.49079260605E+01 0.61005448481E+01
 0.82455317526E+01 0.11551266857E+02 0.16071033359E+02 0.21696529385E+02 0.28157357605E+02
 0.35021209373E+02 0.41707202981E+02 0.47534297701E+02 0.51817314502E+02 0.53997726872E+02
 0.53770539694E+02 0.62244848042E+02 0.57421226429E+02 0.50661656487E+02 0.42761329998E+02
 0.34531277414E+02 0.26678791090E+02 0.19743597458E+02 0.14077804810E+02 0.98442656500E+01
 0.70170093312E+01 0.53876130298E+01 0.45948814140E+01 0.41943219893E+01 0.39165340820E+01
 0.37617870887E+01 0.37372955347E+01 0.38434375316E+01 0.40753513754E+01 0.44181440273E+01
 0.50175162430E+01 0.62980747316E+01 0.86500499620E+01 0.12331129970E+02 0.17430043199E+02
 0.23857948116E+02 0.31347564751E+02 0.39449197556E+02 0.47534297701E+02 0.54833386301E+02
 0.60530443714E+02 0.63908787591E+02 0.64509475447E+02 0.72561294196E+02 0.67910381658E+02
 0.60807527688E+02 0.52115610690E+02 0.42761329998E+02 0.33582046978E+02 0.25238035330E+02
 0.18185232110E+02 0.12678236124E+02 0.87753425137E+01 0.63397928912E+01 0.50540512159E+01
 0.44689452758E+01 0.41311100853E+01 0.39175073263E+01 0.38442393091E+01 0.39151313367E+01
 0.41260211902E+01 0.44604608593E+01 0.50404364160E+01 0.63160226178E+01 0.87319370621E+01
 0.12601950297E+02 0.18062027838E+02 0.25057966617E+02 0.33344697888E+02 0.42479825118E+02
 0.51817314502E+02 0.60530443714E+02 0.67695692913E+02 0.72443930717E+02 0.74144910245E+02
 0.81020426009E+02 0.76935554096E+02 0.69903320273E+02 0.60807527688E+02 0.50661656487E+02
 0.40422179830E+02 0.30869369545E+02 0.22563917032E+02 0.15850366605E+02 0.10869411697E+02
 0.75606807722E+01 0.56667320289E+01 0.47644156710E+01 0.43425405595E+01 0.40703592665E+01
 0.39421020179E+01 0.39674992401E+01 0.41447643422E+01 0.44586463485E+01 0.49822832810E+01
 0.61577182179E+01 0.84776869135E+01 0.12314853740E+02 0.17861963509E+02 0.25113138132E+02
 0.33863242162E+02 0.43701488747E+02 0.53997726872E+02 0.63908787591E+02 0.72443930717E+02
 0.78608908334E+02 0.81605191106E+02 0.86595268989E+02 0.83445215304E+02 0.76935554096E+02
 0.67910381658E+02 0.57421226429E+02 0.46514713725E+02 0.36079549030E+02 0.26778355584E+02
 0.19043515575E+02 0.13094565988E+02 0.89466334535E+01 0.64104194263E+01 0.51088576982E+01
 0.45358723185E+01 0.42107545647E+01 0.40261605365E+01 0.39993047972E+01 0.41322310856E+01
 0.44134898691E+01 0.48634056070E+01 0.58618443585E+01 0.79359233953E+01 0.11514494858E+02
 0.16852878036E+02 0.24004320849E+02 0.32817903629E+02 0.42934557155E+02 0.53770539694E+02
 0.64509475447E+02 0.74144910245E+02 0.81605191106E+02 0.85951918596E+02 0.86595268989E+02
 0.85951918596E+02 0.81605191106E+02 0.74144910245E+02 0.64509475447E+02 0.53770539694E+02
 0.42934557155E+02 0.32817903629E+02 0.24004320849E+02 0.16852878036E+02 0.11514494858E+02
 0.79359233953E+01 0.58618443585E+01 0.48634056070E+01 0.44134898691E+01 0.41322310856E+01
 0.39993047972E+01 0.40261605365E+01 0.42107545647E+01 0.45358723185E+01 0.51088576982E+01
 0.64104194263E+01 0.89466334535E+01 0.13094565988E+02 0.19043515575E+02 0.26778355584E+02
 0.36079549030E+02 0.46514713725E+02 0.57421226429E+02 0.67910381658E+02 0.76935554096E+02
 0.83445215304E+02 0.85951918596E+02 0.86595269100E+02 0.83445215519E+02 0.76935554396E+02
 0.67910382018E+02 0.57421226823E+02 0.46514714123E+02 0.36079549405E+02 0.26778355915E+02
 0.19043515847E+02 0.13094566194E+02 0.89466335958E+01 0.64104195128E+01 0.51088577418E+01
 0.45358723346E+01 0.42107545673E+01 0.40261605357E+01 0.39993047970E+01 0.41322310828E+01
 0.44134898542E+01 0.48634055659E+01 0.58618442755E+01 0.79359232569E+01 0.11514494656E+02
 0.16852877771E+02 0.24004320531E+02 0.32817903276E+02 0.42934556793E+02 0.53770539353E+02
 0.64509475158E+02 0.74144910035E+02 0.81605190995E+02 0.81605191106E+02 0.83445215519E+02
 0.81605191297E+02 0.76340701904E+02 0.68351032718E+02 0.58605685064E+02 0.48135334650E+02
 0.37860740332E+02 0.28499467067E+02 0.20543710687E+02 0.14272308282E+02 0.97616564801E+01
 0.68864214096E+01 0.53286686098E+01 0.46222029438E+01 0.42588392055E+01 0.40301980613E+01
 0.39520720898E+01 0.40301980618E+01 0.42588391950E+01 0.46222029016E+01 0.53286685102E+01
 0.68864212273E+01 0.97616561956E+01 0.14272307886E+02 0.20543710186E+02 0.28499466480E+02
 0.37860739693E+02 0.48135334005E+02 0.58605684464E+02 0.68351032213E+02 0.76340701540E+02
 0.74144910245E+02 0.76935554396E+02 0.76340701904E+02 0.72443930929E+02 0.65772684726E+02
 0.57164994120E+02 0.47580043033E+02 0.37922917354E+02 0.28932420594E+02 0.21139256254E+02
 0.14867420068E+02 0.10243955089E+02 0.72009395585E+01 0.54805899308E+01 0.46680341173E+01
 0.42713586837E+01 0.40096042893E+01 0.38871424439E+01 0.39123145471E+01 0.40837454067E+01
 0.43884714978E+01 0.48724859987E+01 0.59376620705E+01 0.80657753956E+01 0.11627182960E+02
 0.16818909929E+02 0.23642884620E+02 0.31903971341E+02 0.41205661271E+02 0.50941064676E+02
 0.60303380369E+02 0.68351032318E+02 0.64509475447E+02 0.67910382018E+02 0.68351032718E+02
 0.65772684726E+02 0.60530443882E+02 0.53302955670E+02 0.44934086369E+02 0.36267412767E+02
 0.28024999388E+02 0.20748839870E+02 0.14789200641E+02 0.10309700789E+02 0.72895961126E+01
 0.55270224534E+01 0.46632347019E+01 0.42458477870E+01 0.39636817077E+01 0.38072368843E+01
 0.37859319685E+01 0.39009028984E+01 0.41467009039E+01 0.45099067686E+01 0.51800731385E+01
 0.66112816780E+01 0.92080832979E+01 0.13232753234E+02 0.18766829673E+02 0.25701452496E+02
 0.33736289303E+02 0.42376717023E+02 0.50941064769E+02 0.58605684658E+02 0.53770539694E+02
 0.57421226823E+02 0.58605685064E+02 0.57164994120E+02 0.53302955670E+02 0.47534297771E+02
 0.40562282011E+02 0.33133494307E+02 0.25918112004E+02 0.19440675814E+02 0.14056144673E+02
 0.99482519251E+01 0.71306544656E+01 0.54493099433E+01 0.46007770154E+01 0.41829538392E+01
 0.38932874168E+01 0.37151205933E+01 0.36573238707E+01 0.37216726371E+01 0.39071709156E+01
 0.42057393492E+01 0.46353024134E+01 0.55042332135E+01 0.72244638921E+01 0.10108652343E+02
 0.14314134055E+02 0.19819845713E+02 0.26422118381E+02 0.33736289374E+02 0.41205661433E+02
 0.48135334263E+02 0.42934557155E+02 0.46514714123E+02 0.48135334650E+02 0.47580043033E+02
 0.44934086369E+02 0.40562282011E+02 0.35021209328E+02 0.28939861488E+02 0.22910004599E+02
 0.17413384977E+02 0.12788670484E+02 0.92228955956E+01 0.67504310414E+01 0.52547947371E+01
 0.44829531818E+01 0.40864025837E+01 0.38010797230E+01 0.36137384227E+01 0.35313177533E+01
 0.35547298442E+01 0.36846435282E+01 0.39202893572E+01 0.42518798391E+01 0.47559008668E+01
 0.57764061427E+01 0.76520468853E+01 0.10603586572E+02 0.14695039454E+02 0.19819845757E+02
 0.25701452610E+02 0.31903971543E+02 0.37860739984E+02 0.32817903629E+02 0.36079549405E+02
 0.37860740332E+02 0.37922917354E+02 0.36267412767E+02 0.33133494307E+02 0.28939861488E+02
 0.24192002568E+02 0.19387972385E+02 0.14948320592E+02 0.11178136644E+02 0.82528957036E+01
 0.62149327396E+01 0.49747031258E+01 0.43224197692E+01 0.39625210067E+01 0.36914803755E+01
 0.35063714652E+01 0.34113266292E+01 0.34054823452E+01 0.34891623661E+01 0.36648491918E+01
 0.39325788482E+01 0.42843301368E+01 0.48451047653E+01 0.59316053735E+01 0.78051619170E+01
 0.10603586589E+02 0.14314134115E+02 0.18766829800E+02 0.23642884830E+02 0.28499466772E+02
 0.24004320849E+02 0.26778355915E+02 0.28499467067E+02 0.28932420594E+02 0.28024999388E+02
 0.25918112004E+02 0.22910004599E+02 0.19387972385E+02 0.15751663466E+02 0.12350176747E+02
 0.94432667842E+01 0.71836522597E+01 0.56113144984E+01 0.46541912099E+01 0.41379981638E+01
 0.38194469768E+01 0.35703351104E+01 0.33967061238E+01 0.32996575922E+01 0.32762792304E+01
 0.33254777894E+01 0.34501165407E+01 0.36549026399E+01 0.39404274399E+01 0.43021827653E+01
 0.48780990201E+01 0.59316053710E+01 0.76520468982E+01 0.10108652395E+02 0.13232753349E+02
 0.16818910121E+02 0.20543710452E+02 0.16852878036E+02 0.19043515847E+02 0.20543710687E+02
 0.21139256254E+02 0.20748839870E+02 0.19440675814E+02 0.17413384977E+02 0.14948320592E+02
 0.12350176747E+02 0.98937643070E+01 0.77875676262E+01 0.61546723346E+01 0.50255710630E+01
 0.43383129299E+01 0.39470120952E+01 0.36661899690E+01 0.34443258925E+01 0.32887490969E+01
 0.31979235082E+01 0.31671848402E+01 0.31937800122E+01 0.32794003665E+01 0.34296908173E+01
 0.36507184167E+01 0.39430311469E+01 0.43021827553E+01 0.48451047518E+01 0.57764061416E+01
 0.72244639253E+01 0.92080833865E+01 0.11627183116E+02 0.14272308108E+02 0.11514494858E+02
 0.13094566194E+02 0.14272308282E+02 0.14867420068E+02 0.14789200641E+02 0.14056144673E+02
 0.12788670484E+02 0.11178136644E+02 0.94432667842E+01 0.77875676262E+01 0.63674097711E+01
 0.52734357496E+01 0.45226761136E+01 0.40582482458E+01 0.37572513824E+01 0.35116982795E+01
 0.33202438036E+01 0.31865865338E+01 0.31074127664E+01 0.30769968024E+01 0.30912738197E+01
 0.31502866295E+01 0.32585716535E+01 0.34233581737E+01 0.36507184093E+01 0.39404274221E+01
 0.42843301137E+01 0.47559008518E+01 0.55042332254E+01 0.66112817350E+01 0.80657755084E+01
 0.97616563617E+01 0.79359233953E+01 0.89466335958E+01 0.97616564801E+01 0.10243955089E+02
 0.10309700789E+02 0.99482519251E+01 0.92228955956E+01 0.82528957036E+01 0.71836522597E+01
 0.61546723346E+01 0.52734357496E+01 0.45987156421E+01 0.41328109663E+01 0.38209753356E+01
 0.35723723210E+01 0.33640576200E+01 0.32042677902E+01 0.30940507095E+01 0.30293443219E+01
 0.30042332124E+01 0.30140178106E+01 0.30573157806E+01 0.31368220479E+01 0.32585716536E+01
 0.34296908102E+01 0.36549026223E+01 0.39325788233E+01 0.42518798172E+01 0.46353024095E+01
 0.51800731674E+01 0.59376621412E+01 0.68864213385E+01 0.58618443585E+01 0.64104195128E+01
 0.68864214096E+01 0.72009395585E+01 0.72895961126E+01 0.71306544656E+01 0.67504310414E+01
 0.62149327396E+01 0.56113144984E+01 0.50255710630E+01 0.45226761136E+01 0.41328109663E+01
 0.38444536939E+01 0.36080575203E+01 0.34003124238E+01 0.32299081937E+01 0.31014008973E+01
 0.30143988961E+01 0.29650009349E+01 0.29479135593E+01 0.29585645991E+01 0.29947220778E+01
 0.30573157873E+01 0.31502866367E+01 0.32794003674E+01 0.34501165315E+01 0.36648491738E+01
 0.39202893373E+01 0.42057393383E+01 0.45099067779E+01 0.48724860354E+01 0.53286685743E+01
 0.48634056070E+01 0.51088577418E+01 0.53286686098E+01 0.54805899308E+01 0.55270224534E+01
 0.54493099433E+01 0.52547947371E+01 0.49747031258E+01 0.46541912099E+01 0.43383129299E+01
 0.40582482458E+01 0.38209753356E+01 0.36080575203E+01 0.34143599840E+01 0.32479006337E+01
 0.31141265289E+01 0.30151786536E+01 0.29501094338E+01 0.29157685190E+01 0.29080393954E+01
 0.29231140559E+01 0.29585646083E+01 0.30140178265E+01 0.30912738366E+01 0.31937800241E+01
 0.33254777922E+01 0.34891623595E+01 0.36846435163E+01 0.39071709055E+01 0.41467009032E+01
 0.43884715119E+01 0.46222029314E+01 0.44134898691E+01 0.45358723346E+01 0.46222029438E+01
 0.46680341173E+01 0.46632347019E+01 0.46007770154E+01 0.44829531818E+01 0.43224197692E+01
 0.41379981638E+01 0.39470120952E+01 0.37572513824E+01 0.35723723210E+01 0.34003124238E+01
 0.32479006337E+01 0.31201043525E+01 0.30197764047E+01 0.29476861844E+01 0.29028574300E+01
 0.28831199079E+01 0.28857413290E+01 0.29080394031E+01 0.29479135753E+01 0.30042332342E+01
 0.30769968254E+01 0.31671848595E+01 0.32762792423E+01 0.34054823489E+01 0.35547298414E+01
 0.37216726319E+01 0.39009028954E+01 0.40837454094E+01 0.42588392046E+01 0.41322310856E+01
 0.42107545673E+01 0.42588392055E+01 0.42713586837E+01 0.42458477870E+01 0.41829538392E+01
 0.40864025837E+01 0.39625210067E+01 0.38194469768E+01 0.36661899690E+01 0.35116982795E+01
 0.33640576200E+01 0.32299081937E+01 0.31141265289E+01 0.30197764047E+01 0.29482930477E+01
 0.28998289076E+01 0.28736634483E+01 0.28685768776E+01 0.28831199120E+01 0.29157685290E+01
 0.29650009507E+01 0.30293443415E+01 0.31074127867E+01 0.31979235262E+01 0.32996576054E+01
 0.34113266367E+01 0.35313177560E+01 0.36573238702E+01 0.37859319672E+01 0.39123145469E+01
 0.40301980633E+01 0.39993047972E+01 0.40261605357E+01 0.40301980613E+01 0.40096042893E+01
 0.39636817077E+01 0.38932874168E+01 0.38010797230E+01 0.36914803755E+01 0.35703351104E+01
 0.34443258925E+01 0.33202438036E+01 0.32042677902E+01 0.31014008973E+01 0.30151786536E+01
 0.29476861844E+01 0.28998289076E+01 0.28717342026E+01 0.28631414365E+01 0.28736634491E+01
 0.29028574326E+01 0.29501094386E+01 0.30143989028E+01 0.30940507174E+01 0.31865865419E+01
 0.32887491042E+01 0.33967061297E+01 0.35063714696E+01 0.36137384257E+01 0.37151205953E+01
 0.38072368857E+01 0.38871424451E+01 0.39520720906E+01 0.40261605365E+01 0.39993047970E+01
 0.39520720898E+01 0.38871424439E+01 0.38072368843E+01 0.37151205933E+01 0.36137384227E+01
 0.35063714652E+01 0.33967061238E+01 0.32887490969E+01 0.31865865338E+01 0.30940507095E+01
 0.30143988961E+01 0.29501094338E+01 0.29028574300E+01 0.28736634483E+01 0.28631414365E+01
 0.28717342021E+01 0.28998289054E+01 0.29476861797E+01 0.30151786462E+01 0.31014008879E+01
 0.32042677800E+01 0.33202437939E+01 0.34443258848E+01 0.35703351056E+01 0.36914803737E+01
 0.38010797238E+01 0.38932874194E+01 0.39636817110E+01 0.40096042922E+01 0.40301980633E+01
 0.42107545647E+01 0.41322310828E+01 0.40301980618E+01 0.39123145471E+01 0.37859319685E+01
 0.36573238707E+01 0.35313177533E+01 0.34113266292E+01 0.32996575922E+01 0.31979235082E+01
 0.31074127664E+01 0.30293443219E+01 0.29650009349E+01 0.29157685190E+01 0.28831199079E+01
 0.28685768776E+01 0.28736634491E+01 0.28998289054E+01 0.29482930394E+01 0.30197763887E+01
 0.31141265059E+01 0.32299081662E+01 0.33640575920E+01 0.35116982549E+01 0.36661899510E+01
 0.38194469667E+01 0.39625210038E+01 0.40864025860E+01 0.41829538437E+01 0.42458477909E+01