   1   1   1   0
  0.1051229E+02  0.2390230E-09  0.2390230E-09  0.2390230E-09  0.5000000E-15
  1.000000000000000E-004
  CAR 
 Fe BCC                                  
     49.68482564     -4.56146039  301      6.60343549      1.00000000
     -4.561  0.0000E+00  0.0000E+00  0.0000E+00  0.0000E+00
     -4.381  0.0000E+00  0.0000E+00  0.0000E+00  0.0000E+00
     -4.200  0.0000E+00  0.0000E+00  0.0000E+00  0.0000E+00
     -4.019  0.0000E+00  0.0000E+00  0.0000E+00  0.0000E+00
     -3.838  0.0000E+00  0.0000E+00  0.0000E+00  0.0000E+00
     -3.657  0.0000E+00  0.0000E+00  0.0000E+00  0.0000E+00
     -3.477  0.0000E+00  0.0000E+00  0.0000E+00  0.0000E+00
     -3.296  0.0000E+00  0.0000E+00  0.0000E+00  0.0000E+00
     -3.115  0.0000E+00  0.0000E+00  0.0000E+00  0.0000E+00
     -2.934  0.0000E+00  0.0000E+00  0.0000E+00  0.0000E+00
     -2.753  0.0000E+00  0.0000E+00  0.0000E+00  0.0000E+00
     -2.572  0.0000E+00  0.0000E+00  0.0000E+00  0.0000E+00
     -2.392  0.0000E+00  0.0000E+00  0.0000E+00  0.0000E+00
     -2.211  0.0000E+00  0.0000E+00  0.0000E+00  0.0000E+00
     -2.030  0.1146E-01  0.0000E+00  0.1326E-02  0.0000E+00
     -1.849  0.1743E-01  0.0000E+00  0.3952E-02  0.0000E+00
     -1.668  0.2247E-01  0.1128E-01  0.7574E-02  0.1321E-02
     -1.488  0.2658E-01  0.1705E-01  0.1202E-01  0.3897E-02
     -1.307  0.3328E-01  0.2190E-01  0.1737E-01  0.7432E-02
     -1.126  0.3973E-01  0.2582E-01  0.2400E-01  0.1176E-01
     -0.945  0.4464E-01  0.3197E-01  0.3165E-01  0.1692E-01
     -0.764  0.4600E-01  0.3800E-01  0.3988E-01  0.2327E-01
     -0.583  0.5141E-01  0.4248E-01  0.4867E-01  0.3057E-01
     -0.403  0.5734E-01  0.4277E-01  0.5850E-01  0.3841E-01
     -0.222  0.6380E-01  0.4705E-01  0.6944E-01  0.4652E-01
     -0.041  0.7077E-01  0.5167E-01  0.8160E-01  0.5544E-01
      0.140  0.7827E-01  0.5662E-01  0.9507E-01  0.6523E-01
      0.321  0.8907E-01  0.6189E-01  0.1100E+00  0.7594E-01
      0.502  0.1065E+00  0.6750E-01  0.1277E+00  0.8763E-01
      0.682  0.1254E+00  0.7223E-01  0.1486E+00  0.1004E+00
      0.863  0.1497E+00  0.8162E-01  0.1732E+00  0.1143E+00
      1.044  0.1924E+00  0.9107E-01  0.2039E+00  0.1299E+00
      1.225  0.2484E+00  0.1000E+00  0.2436E+00  0.1472E+00
      1.406  0.4421E+00  0.1097E+00  0.3109E+00  0.1661E+00
      1.586  0.5628E+00  0.1236E+00  0.4028E+00  0.1871E+00
      1.767  0.8089E+00  0.1411E+00  0.5222E+00  0.2110E+00
      1.948  0.1013E+01  0.1614E+00  0.6911E+00  0.2383E+00
      2.129  0.8087E+00  0.1845E+00  0.8564E+00  0.2695E+00
      2.310  0.5076E+00  0.2226E+00  0.9745E+00  0.3053E+00
      2.491  0.3770E+00  0.4020E+00  0.1054E+01  0.3653E+00
      2.671  0.3325E+00  0.4101E+00  0.1110E+01  0.4387E+00
      2.852  0.1429E+01  0.4322E+00  0.1204E+01  0.5151E+00
      3.033  0.1516E+01  0.5324E+00  0.1481E+01  0.6041E+00
      3.214  0.1030E+01  0.7285E+00  0.1717E+01  0.7129E+00
      3.395  0.6630E+00  0.6710E+00  0.1857E+01  0.8563E+00
      3.575  0.7521E+00  0.4711E+00  0.1984E+01  0.9604E+00
      3.756  0.1077E+01  0.3389E+00  0.2147E+01  0.1032E+01
      3.937  0.1746E+01  0.2534E+00  0.2405E+01  0.1078E+01
      4.118  0.8401E+00  0.2310E+00  0.2665E+01  0.1114E+01
      4.299  0.4109E+00  0.1126E+01  0.2763E+01  0.1245E+01
      4.480  0.3516E+00  0.1323E+01  0.2831E+01  0.1465E+01
      4.660  0.3406E+00  0.1382E+01  0.2893E+01  0.1696E+01
      4.841  0.3925E+00  0.8383E+00  0.2957E+01  0.1855E+01
      5.022  0.5449E+00  0.9225E+00  0.3048E+01  0.2015E+01
      5.203  0.8989E+00  0.1079E+01  0.3171E+01  0.2189E+01
      5.384  0.1475E+01  0.1400E+01  0.3384E+01  0.2414E+01
      5.565  0.1857E+01  0.1040E+01  0.3699E+01  0.2640E+01
      5.745  0.1486E+01  0.4393E+00  0.4036E+01  0.2785E+01
      5.926  0.2170E+01  0.2782E+00  0.4370E+01  0.2844E+01
      6.107  0.1024E+01  0.2278E+00  0.4602E+01  0.2890E+01
      6.288  0.7740E+00  0.2214E+00  0.4761E+01  0.2929E+01
      6.469  0.7271E+00  0.2061E+00  0.4897E+01  0.2966E+01
      6.649  0.8510E+00  0.3125E+00  0.5036E+01  0.3014E+01
      6.830  0.4284E+00  0.4143E+00  0.5192E+01  0.3079E+01
      7.011  0.1675E+00  0.6493E+00  0.5241E+01  0.3170E+01
      7.192  0.1433E+00  0.9174E+00  0.5267E+01  0.3308E+01
      7.373  0.1653E+00  0.1310E+01  0.5295E+01  0.3509E+01
      7.554  0.1646E+00  0.1513E+01  0.5325E+01  0.3765E+01
      7.734  0.1583E+00  0.1245E+01  0.5354E+01  0.4020E+01
      7.915  0.1498E+00  0.1298E+01  0.5382E+01  0.4247E+01
      8.096  0.1433E+00  0.3332E+01  0.5409E+01  0.4578E+01
      8.277  0.1430E+00  0.1003E+01  0.5434E+01  0.4809E+01
      8.458  0.1427E+00  0.9149E+00  0.5460E+01  0.4982E+01
      8.638  0.1426E+00  0.1002E+01  0.5486E+01  0.5164E+01
      8.819  0.1426E+00  0.1909E+00  0.5512E+01  0.5241E+01
      9.000  0.1427E+00  0.2122E+00  0.5538E+01  0.5278E+01
      9.181  0.1419E+00  0.2109E+00  0.5563E+01  0.5317E+01
      9.362  0.1400E+00  0.1986E+00  0.5589E+01  0.5354E+01
      9.543  0.1369E+00  0.1815E+00  0.5614E+01  0.5388E+01
      9.723  0.1405E+00  0.1730E+00  0.5639E+01  0.5420E+01
      9.904  0.1334E+00  0.1711E+00  0.5664E+01  0.5451E+01
     10.085  0.1275E+00  0.1696E+00  0.5687E+01  0.5482E+01
     10.266  0.1346E+00  0.1690E+00  0.5711E+01  0.5512E+01
     10.447  0.1211E+00  0.1675E+00  0.5735E+01  0.5543E+01
     10.627  0.1165E+00  0.1640E+00  0.5757E+01  0.5573E+01
     10.808  0.1119E+00  0.1587E+00  0.5777E+01  0.5602E+01
     10.989  0.1073E+00  0.1592E+00  0.5797E+01  0.5631E+01
     11.170  0.1028E+00  0.1471E+00  0.5816E+01  0.5659E+01
     11.351  0.9842E-01  0.1422E+00  0.5834E+01  0.5685E+01
     11.532  0.9274E-01  0.1436E+00  0.5852E+01  0.5711E+01
     11.712  0.8654E-01  0.1324E+00  0.5868E+01  0.5737E+01
     11.893  0.8042E-01  0.1267E+00  0.5883E+01  0.5760E+01
     12.074  0.7437E-01  0.1211E+00  0.5897E+01  0.5783E+01
     12.255  0.7755E-01  0.1157E+00  0.5911E+01  0.5804E+01
     12.436  0.7011E-01  0.1104E+00  0.5924E+01  0.5825E+01
     12.617  0.5993E-01  0.1052E+00  0.5936E+01  0.5844E+01
     12.797  0.4401E-01  0.9830E-01  0.5945E+01  0.5863E+01
     12.978  0.4048E-01  0.9095E-01  0.5952E+01  0.5880E+01
     13.159  0.3716E-01  0.9170E-01  0.5959E+01  0.5896E+01
     13.340  0.3148E-01  0.8383E-01  0.5967E+01  0.5912E+01
     13.521  0.2457E-01  0.7376E-01  0.5972E+01  0.5926E+01
     13.701  0.1958E-01  0.5184E-01  0.5976E+01  0.5938E+01
     13.882  0.1653E-01  0.4750E-01  0.5979E+01  0.5947E+01
     14.063  0.1549E-01  0.4340E-01  0.5982E+01  0.5956E+01
     14.244  0.1693E-01  0.3955E-01  0.5985E+01  0.5963E+01
     14.425  0.2092E-01  0.3203E-01  0.5988E+01  0.5971E+01
     14.606  0.2745E-01  0.2476E-01  0.5993E+01  0.5976E+01
     14.786  0.5393E-01  0.1958E-01  0.6000E+01  0.5980E+01
     14.967  0.8905E-01  0.1650E-01  0.6012E+01  0.5983E+01
     15.148  0.1430E+00  0.1561E-01  0.6034E+01  0.5986E+01
     15.329  0.2005E+00  0.1717E-01  0.6066E+01  0.5989E+01
     15.510  0.2425E+00  0.2122E-01  0.6106E+01  0.5992E+01
     15.690  0.2533E+00  0.3063E-01  0.6151E+01  0.5998E+01
     15.871  0.2658E+00  0.3812E-01  0.6198E+01  0.6004E+01
     16.052  0.1880E+00  0.8289E-01  0.6248E+01  0.6015E+01
     16.233  0.1839E+00  0.1472E+00  0.6282E+01  0.6035E+01
     16.414  0.1793E+00  0.2092E+00  0.6315E+01  0.6070E+01
     16.595  0.1743E+00  0.2591E+00  0.6347E+01  0.6112E+01
     16.775  0.1687E+00  0.2839E+00  0.6378E+01  0.6162E+01
     16.956  0.1655E+00  0.2926E+00  0.6408E+01  0.6214E+01
     17.137  0.1678E+00  0.2036E+00  0.6438E+01  0.6263E+01
     17.318  0.1729E+00  0.1979E+00  0.6470E+01  0.6299E+01
     17.499  0.1664E+00  0.1915E+00  0.6501E+01  0.6335E+01
     17.680  0.1583E+00  0.1906E+00  0.6531E+01  0.6369E+01
     17.860  0.1630E+00  0.1922E+00  0.6560E+01  0.6404E+01
     18.041  0.1681E+00  0.2132E+00  0.6590E+01  0.6441E+01
     18.222  0.1746E+00  0.1600E+00  0.6621E+01  0.6473E+01
     18.403  0.1907E+00  0.1681E+00  0.6655E+01  0.6502E+01
     18.584  0.1933E+00  0.1718E+00  0.6689E+01  0.6533E+01
     18.764  0.1955E+00  0.1762E+00  0.6724E+01  0.6565E+01
     18.945  0.1981E+00  0.1812E+00  0.6760E+01  0.6597E+01
     19.126  0.2009E+00  0.1872E+00  0.6796E+01  0.6630E+01
     19.307  0.2027E+00  0.2019E+00  0.6833E+01  0.6667E+01
     19.488  0.2032E+00  0.2045E+00  0.6869E+01  0.6704E+01
     19.669  0.2088E+00  0.2068E+00  0.6908E+01  0.6741E+01
     19.849  0.1964E+00  0.2092E+00  0.6947E+01  0.6778E+01
     20.030  0.1854E+00  0.2112E+00  0.6981E+01  0.6816E+01
     20.211  0.1831E+00  0.2119E+00  0.7015E+01  0.6855E+01
     20.392  0.1808E+00  0.2177E+00  0.7048E+01  0.6895E+01
     20.573  0.1788E+00  0.2043E+00  0.7080E+01  0.6935E+01
     20.753  0.1779E+00  0.1922E+00  0.7112E+01  0.6971E+01
     20.934  0.1767E+00  0.1899E+00  0.7144E+01  0.7005E+01
     21.115  0.1754E+00  0.1876E+00  0.7176E+01  0.7040E+01
     21.296  0.1812E+00  0.1854E+00  0.7208E+01  0.7073E+01
     21.477  0.1749E+00  0.1835E+00  0.7240E+01  0.7107E+01
     21.658  0.1708E+00  0.1830E+00  0.7272E+01  0.7140E+01
     21.838  0.1698E+00  0.1819E+00  0.7302E+01  0.7173E+01
     22.019  0.1681E+00  0.1808E+00  0.7333E+01  0.7206E+01
     22.200  0.1661E+00  0.1853E+00  0.7363E+01  0.7239E+01
     22.381  0.1650E+00  0.1774E+00  0.7393E+01  0.7272E+01
     22.562  0.1639E+00  0.1763E+00  0.7423E+01  0.7304E+01
     22.743  0.1628E+00  0.1745E+00  0.7452E+01  0.7335E+01
     22.923  0.1617E+00  0.1729E+00  0.7482E+01  0.7367E+01
     23.104  0.1606E+00  0.1719E+00  0.7511E+01  0.7398E+01
     23.285  0.1665E+00  0.1710E+00  0.7541E+01  0.7429E+01
     23.466  0.1686E+00  0.1701E+00  0.7572E+01  0.7460E+01
     23.647  0.1720E+00  0.1691E+00  0.7602E+01  0.7491E+01
     23.827  0.1762E+00  0.1682E+00  0.7634E+01  0.7521E+01
     24.008  0.1840E+00  0.1671E+00  0.7666E+01  0.7551E+01
     24.189  0.2102E+00  0.1659E+00  0.7702E+01  0.7581E+01
     24.370  0.2059E+00  0.1736E+00  0.7738E+01  0.7613E+01
     24.551  0.2169E+00  0.1784E+00  0.7776E+01  0.7645E+01
     24.732  0.2308E+00  0.1856E+00  0.7817E+01  0.7677E+01
     24.912  0.2261E+00  0.1961E+00  0.7859E+01  0.7712E+01
     25.093  0.2315E+00  0.2269E+00  0.7900E+01  0.7750E+01
     25.274  0.2362E+00  0.2203E+00  0.7942E+01  0.7788E+01
     25.455  0.2404E+00  0.2380E+00  0.7985E+01  0.7831E+01
     25.636  0.2347E+00  0.2369E+00  0.8028E+01  0.7874E+01
     25.816  0.2385E+00  0.2427E+00  0.8071E+01  0.7918E+01
     25.997  0.2507E+00  0.2369E+00  0.8116E+01  0.7961E+01
     26.178  0.3152E+00  0.2412E+00  0.8162E+01  0.8004E+01
     26.359  0.2660E+00  0.2452E+00  0.8210E+01  0.8048E+01
     26.540  0.2758E+00  0.2524E+00  0.8259E+01  0.8093E+01
     26.721  0.2858E+00  0.2613E+00  0.8310E+01  0.8139E+01
     26.901  0.3139E+00  0.2681E+00  0.8364E+01  0.8188E+01
     27.082  0.2949E+00  0.2777E+00  0.8418E+01  0.8238E+01
     27.263  0.2853E+00  0.2867E+00  0.8471E+01  0.8289E+01
     27.444  0.2801E+00  0.3001E+00  0.8522E+01  0.8342E+01
     27.625  0.2722E+00  0.3074E+00  0.8572E+01  0.8398E+01
     27.805  0.2634E+00  0.3029E+00  0.8620E+01  0.8454E+01
     27.986  0.2540E+00  0.2910E+00  0.8667E+01  0.8507E+01
     28.167  0.2434E+00  0.2835E+00  0.8712E+01  0.8559E+01
     28.348  0.2309E+00  0.2720E+00  0.8755E+01  0.8610E+01
     28.529  0.2163E+00  0.2616E+00  0.8796E+01  0.8658E+01
     28.710  0.2024E+00  0.2500E+00  0.8833E+01  0.8704E+01
     28.890  0.1830E+00  0.2364E+00  0.8868E+01  0.8748E+01
     29.071  0.1668E+00  0.2209E+00  0.8900E+01  0.8789E+01
     29.252  0.1554E+00  0.2055E+00  0.8929E+01  0.8828E+01
     29.433  0.1474E+00  0.1868E+00  0.8957E+01  0.8863E+01
     29.614  0.1405E+00  0.1720E+00  0.8983E+01  0.8896E+01
     29.795  0.1417E+00  0.1606E+00  0.9008E+01  0.8926E+01
     29.975  0.1455E+00  0.1430E+00  0.9034E+01  0.8954E+01
     30.156  0.1437E+00  0.1451E+00  0.9061E+01  0.8980E+01
     30.337  0.1433E+00  0.1469E+00  0.9087E+01  0.9006E+01
     30.518  0.1397E+00  0.1503E+00  0.9113E+01  0.9033E+01
     30.699  0.1540E+00  0.1449E+00  0.9139E+01  0.9060E+01
     30.879  0.1435E+00  0.1404E+00  0.9166E+01  0.9087E+01
     31.060  0.1355E+00  0.1434E+00  0.9191E+01  0.9113E+01
     31.241  0.1391E+00  0.1613E+00  0.9216E+01  0.9140E+01
     31.422  0.1427E+00  0.1457E+00  0.9241E+01  0.9168E+01
     31.603  0.1469E+00  0.1385E+00  0.9268E+01  0.9193E+01
     31.784  0.1533E+00  0.1415E+00  0.9295E+01  0.9218E+01
     31.964  0.1580E+00  0.1445E+00  0.9324E+01  0.9244E+01
     32.145  0.1655E+00  0.1480E+00  0.9354E+01  0.9270E+01
     32.326  0.2207E+00  0.1475E+00  0.9387E+01  0.9298E+01
     32.507  0.3966E+00  0.1520E+00  0.9438E+01  0.9325E+01
     32.688  0.2754E+00  0.1589E+00  0.9502E+01  0.9353E+01
     32.868  0.2517E+00  0.1959E+00  0.9550E+01  0.9384E+01
     33.049  0.2256E+00  0.2742E+00  0.9593E+01  0.9426E+01
     33.230  0.2089E+00  0.3438E+00  0.9632E+01  0.9487E+01
     33.411  0.1768E+00  0.2843E+00  0.9665E+01  0.9542E+01
     33.592  0.1758E+00  0.2518E+00  0.9696E+01  0.9590E+01
     33.773  0.1747E+00  0.2258E+00  0.9729E+01  0.9632E+01
     33.953  0.1674E+00  0.1792E+00  0.9759E+01  0.9669E+01
     34.134  0.1600E+00  0.1784E+00  0.9789E+01  0.9701E+01
     34.315  0.1603E+00  0.1728E+00  0.9818E+01  0.9733E+01
     34.496  0.1557E+00  0.1660E+00  0.9847E+01  0.9763E+01
     34.677  0.1518E+00  0.1590E+00  0.9875E+01  0.9793E+01
     34.858  0.1547E+00  0.1517E+00  0.9908E+01  0.9821E+01
     35.038  0.1540E+00  0.1544E+00  0.9935E+01  0.9849E+01
     35.219  0.1459E+00  0.1535E+00  0.9962E+01  0.9876E+01
     35.400  0.2079E+00  0.1557E+00  0.1000E+02  0.9910E+01
     35.581  0.2349E+00  0.1543E+00  0.1004E+02  0.9939E+01
     35.762  0.2758E+00  0.1461E+00  0.1009E+02  0.9966E+01
     35.942  0.3029E+00  0.3110E+00  0.1014E+02  0.9997E+01
     36.123  0.3185E+00  0.2268E+00  0.1019E+02  0.1004E+02
     36.304  0.3197E+00  0.2536E+00  0.1025E+02  0.1008E+02
     36.485  0.3226E+00  0.2991E+00  0.1031E+02  0.1013E+02
     36.666  0.3182E+00  0.3128E+00  0.1037E+02  0.1019E+02
     36.847  0.3054E+00  0.3244E+00  0.1042E+02  0.1024E+02
     37.027  0.3052E+00  0.3267E+00  0.1048E+02  0.1030E+02
     37.208  0.2852E+00  0.3194E+00  0.1053E+02  0.1036E+02
     37.389  0.2589E+00  0.3043E+00  0.1058E+02  0.1042E+02
     37.570  0.2475E+00  0.3058E+00  0.1063E+02  0.1047E+02
     37.751  0.2350E+00  0.2911E+00  0.1067E+02  0.1053E+02
     37.931  0.2280E+00  0.2702E+00  0.1071E+02  0.1058E+02
     38.112  0.2217E+00  0.2552E+00  0.1076E+02  0.1063E+02
     38.293  0.2198E+00  0.2458E+00  0.1080E+02  0.1067E+02
     38.474  0.2184E+00  0.2341E+00  0.1084E+02  0.1071E+02
     38.655  0.2043E+00  0.2280E+00  0.1088E+02  0.1076E+02
     38.836  0.1949E+00  0.2237E+00  0.1091E+02  0.1080E+02
     39.016  0.2007E+00  0.2385E+00  0.1095E+02  0.1084E+02
     39.197  0.2119E+00  0.2168E+00  0.1098E+02  0.1088E+02
     39.378  0.2297E+00  0.1974E+00  0.1102E+02  0.1092E+02
     39.559  0.2462E+00  0.2008E+00  0.1107E+02  0.1095E+02
     39.740  0.2615E+00  0.2105E+00  0.1111E+02  0.1099E+02
     39.920  0.2863E+00  0.2238E+00  0.1116E+02  0.1103E+02
     40.101  0.2974E+00  0.2402E+00  0.1122E+02  0.1107E+02
     40.282  0.3454E+00  0.2657E+00  0.1128E+02  0.1112E+02
     40.463  0.3178E+00  0.2787E+00  0.1134E+02  0.1117E+02
     40.644  0.2837E+00  0.2907E+00  0.1139E+02  0.1122E+02
     40.825  0.2321E+00  0.3183E+00  0.1144E+02  0.1128E+02
     41.005  0.2194E+00  0.3150E+00  0.1148E+02  0.1133E+02
     41.186  0.2115E+00  0.2883E+00  0.1152E+02  0.1139E+02
     41.367  0.2036E+00  0.2445E+00  0.1155E+02  0.1144E+02
     41.548  0.1957E+00  0.2197E+00  0.1159E+02  0.1148E+02
     41.729  0.1822E+00  0.2116E+00  0.1163E+02  0.1152E+02
     41.910  0.1755E+00  0.2035E+00  0.1166E+02  0.1156E+02
     42.090  0.1688E+00  0.1908E+00  0.1169E+02  0.1159E+02
     42.271  0.1623E+00  0.1840E+00  0.1172E+02  0.1163E+02
     42.452  0.1691E+00  0.1774E+00  0.1175E+02  0.1166E+02
     42.633  0.1723E+00  0.1710E+00  0.1178E+02  0.1169E+02
     42.814  0.2019E+00  0.1696E+00  0.1181E+02  0.1172E+02
     42.994  0.1786E+00  0.1735E+00  0.1185E+02  0.1175E+02
     43.175  0.9929E-01  0.1702E+00  0.1187E+02  0.1178E+02
     43.356  0.7425E-01  0.1745E+00  0.1188E+02  0.1181E+02
     43.537  0.6479E-01  0.1576E+00  0.1190E+02  0.1184E+02
     43.718  0.6053E-01  0.9943E-01  0.1191E+02  0.1187E+02
     43.899  0.5643E-01  0.7116E-01  0.1192E+02  0.1189E+02
     44.079  0.5248E-01  0.6528E-01  0.1193E+02  0.1190E+02
     44.260  0.4870E-01  0.6095E-01  0.1194E+02  0.1191E+02
     44.441  0.4507E-01  0.5678E-01  0.1195E+02  0.1192E+02
     44.622  0.4160E-01  0.5277E-01  0.1195E+02  0.1193E+02
     44.803  0.3828E-01  0.4892E-01  0.1196E+02  0.1194E+02
     44.983  0.3512E-01  0.4523E-01  0.1197E+02  0.1195E+02
     45.164  0.3212E-01  0.4170E-01  0.1197E+02  0.1195E+02
     45.345  0.2501E-01  0.3832E-01  0.1198E+02  0.1196E+02
     45.526  0.2285E-01  0.3511E-01  0.1198E+02  0.1197E+02
     45.707  0.2082E-01  0.2775E-01  0.1199E+02  0.1198E+02
     45.888  0.1894E-01  0.2538E-01  0.1199E+02  0.1198E+02
     46.068  0.1248E-01  0.2315E-01  0.1200E+02  0.1198E+02
     46.249  0.6243E-02  0.2106E-01  0.1200E+02  0.1199E+02
     46.430  0.2858E-02  0.1937E-01  0.1200E+02  0.1199E+02
     46.611  0.0000E+00  0.1253E-01  0.1200E+02  0.1200E+02
     46.792  0.0000E+00  0.7338E-02  0.1200E+02  0.1200E+02
     46.973  0.0000E+00  0.1519E-02  0.1200E+02  0.1200E+02
     47.153  0.0000E+00  0.1080E-03  0.1200E+02  0.1200E+02
     47.334  0.0000E+00  0.0000E+00  0.1200E+02  0.1200E+02
     47.515  0.0000E+00  0.0000E+00  0.1200E+02  0.1200E+02
     47.696  0.0000E+00  0.0000E+00  0.1200E+02  0.1200E+02
     47.877  0.0000E+00  0.0000E+00  0.1200E+02  0.1200E+02
     48.057  0.0000E+00  0.0000E+00  0.1200E+02  0.1200E+02
     48.238  0.0000E+00  0.0000E+00  0.1200E+02  0.1200E+02
     48.419  0.0000E+00  0.0000E+00  0.1200E+02  0.1200E+02
     48.600  0.0000E+00  0.0000E+00  0.1200E+02  0.1200E+02
     48.781  0.0000E+00  0.0000E+00  0.1200E+02  0.1200E+02
     48.962  0.0000E+00  0.0000E+00  0.1200E+02  0.1200E+02
     49.142  0.0000E+00  0.0000E+00  0.1200E+02  0.1200E+02
     49.323  0.0000E+00  0.0000E+00  0.1200E+02  0.1200E+02
     49.504  0.0000E+00  0.0000E+00  0.1200E+02  0.1200E+02
     49.685  0.0000E+00  0.0000E+00  0.1200E+02  0.1200E+02
     49.68482564     -4.56146039  301      6.60343549      1.00000000
     -4.561  0.0000E+00  0.0000E+00  0.0000E+00  0.0000E+00  0.0000E+00  0.0000E+00  0.0000E+00  0.0000E+00  0.0000E+00  0.0000E+00  0.0000E+00  0.0000E+00  0.0000E+00  0.0000E+00  0.0000E+00  0.0000E+00  0.0000E+00  0.0000E+00
     -4.381  0.0000E+00  0.0000E+00  0.0000E+00  0.0000E+00  0.0000E+00  0.0000E+00  0.0000E+00  0.0000E+00  0.0000E+00  0.0000E+00  0.0000E+00  0.0000E+00  0.0000E+00  0.0000E+00  0.0000E+00  0.0000E+00  0.0000E+00  0.0000E+00
     -4.200  0.0000E+00  0.0000E+00  0.0000E+00  0.0000E+00  0.0000E+00  0.0000E+00  0.0000E+00  0.0000E+00  0.0000E+00  0.0000E+00  0.0000E+00  0.0000E+00  0.0000E+00  0.0000E+00  0.0000E+00  0.0000E+00  0.0000E+00  0.0000E+00
     -4.019  0.0000E+00  0.0000E+00  0.0000E+00  0.0000E+00  0.0000E+00  0.0000E+00  0.0000E+00  0.0000E+00  0.0000E+00  0.0000E+00  0.0000E+00  0.0000E+00  0.0000E+00  0.0000E+00  0.0000E+00  0.0000E+00  0.0000E+00  0.0000E+00
     -3.838  0.0000E+00  0.0000E+00  0.0000E+00  0.0000E+00  0.0000E+00  0.0000E+00  0.0000E+00  0.0000E+00  0.0000E+00  0.0000E+00  0.0000E+00  0.0000E+00  0.0000E+00  0.0000E+00  0.0000E+00  0.0000E+00  0.0000E+00  0.0000E+00
     -3.657  0.0000E+00  0.0000E+00  0.0000E+00  0.0000E+00  0.0000E+00  0.0000E+00  0.0000E+00  0.0000E+00  0.0000E+00  0.0000E+00  0.0000E+00  0.0000E+00  0.0000E+00  0.0000E+00  0.0000E+00  0.0000E+00  0.0000E+00  0.0000E+00
     -3.477  0.0000E+00  0.0000E+00  0.0000E+00  0.0000E+00  0.0000E+00  0.0000E+00  0.0000E+00  0.0000E+00  0.0000E+00  0.0000E+00  0.0000E+00  0.0000E+00  0.0000E+00  0.0000E+00  0.0000E+00  0.0000E+00  0.0000E+00  0.0000E+00
     -3.296  0.0000E+00  0.0000E+00  0.0000E+00  0.0000E+00  0.0000E+00  0.0000E+00  0.0000E+00  0.0000E+00  0.0000E+00  0.0000E+00  0.0000E+00  0.0000E+00  0.0000E+00  0.0000E+00  0.0000E+00  0.0000E+00  0.0000E+00  0.0000E+00
     -3.115  0.0000E+00  0.0000E+00  0.0000E+00  0.0000E+00  0.0000E+00  0.0000E+00  0.0000E+00  0.0000E+00  0.0000E+00  0.0000E+00  0.0000E+00  0.0000E+00  0.0000E+00  0.0000E+00  0.0000E+00  0.0000E+00  0.0000E+00  0.0000E+00
     -2.934  0.0000E+00  0.0000E+00  0.0000E+00  0.0000E+00  0.0000E+00  0.0000E+00  0.0000E+00  0.0000E+00  0.0000E+00  0.0000E+00  0.0000E+00  0.0000E+00  0.0000E+00  0.0000E+00  0.0000E+00  0.0000E+00  0.0000E+00  0.0000E+00
     -2.753  0.0000E+00  0.0000E+00  0.0000E+00  0.0000E+00  0.0000E+00  0.0000E+00  0.0000E+00  0.0000E+00  0.0000E+00  0.0000E+00  0.0000E+00  0.0000E+00  0.0000E+00  0.0000E+00  0.0000E+00  0.0000E+00  0.0000E+00  0.0000E+00
     -2.572  0.0000E+00  0.0000E+00  0.0000E+00  0.0000E+00  0.0000E+00  0.0000E+00  0.0000E+00  0.0000E+00  0.0000E+00  0.0000E+00  0.0000E+00  0.0000E+00  0.0000E+00  0.0000E+00  0.0000E+00  0.0000E+00  0.0000E+00  0.0000E+00
     -2.392  0.0000E+00  0.0000E+00  0.0000E+00  0.0000E+00  0.0000E+00  0.0000E+00  0.0000E+00  0.0000E+00  0.0000E+00  0.0000E+00  0.0000E+00  0.0000E+00  0.0000E+00  0.0000E+00  0.0000E+00  0.0000E+00  0.0000E+00  0.0000E+00
     -2.211  0.0000E+00  0.0000E+00  0.0000E+00  0.0000E+00  0.0000E+00  0.0000E+00  0.0000E+00  0.0000E+00  0.0000E+00  0.0000E+00  0.0000E+00  0.0000E+00  0.0000E+00  0.0000E+00  0.0000E+00  0.0000E+00  0.0000E+00  0.0000E+00
     -2.030  0.8602E-02  0.0000E+00  0.9076E-04  0.0000E+00  0.6163E-04  0.0000E+00  0.3883E-03  0.0000E+00  0.2749E-04  0.0000E+00  0.7196E-05  0.0000E+00  0.9918E-05  0.0000E+00  0.6865E-05  0.0000E+00  0.1123E-04  0.0000E+00
     -1.849  0.1285E-01  0.0000E+00  0.1967E-03  0.0000E+00  0.1236E-03  0.0000E+00  0.6904E-03  0.0000E+00  0.6662E-04  0.0000E+00  0.1949E-04  0.0000E+00  0.2483E-04  0.0000E+00  0.1483E-04  0.0000E+00  0.2799E-04  0.0000E+00
     -1.668  0.1629E-01  0.8535E-02  0.3055E-03  0.9069E-04  0.1746E-03  0.6127E-04  0.1026E-02  0.3844E-03  0.1156E-03  0.2008E-04  0.3693E-04  0.5519E-05  0.4569E-04  0.7120E-05  0.2294E-04  0.5308E-05  0.5384E-04  0.8493E-05
     -1.488  0.1894E-01  0.1268E-01  0.4169E-03  0.1954E-03  0.2146E-03  0.1222E-03  0.1396E-02  0.6793E-03  0.1745E-03  0.4799E-04  0.5952E-04  0.1419E-04  0.7249E-04  0.1745E-04  0.3117E-04  0.1126E-04  0.8878E-04  0.2037E-04
     -1.307  0.2324E-01  0.1604E-01  0.6190E-03  0.3028E-03  0.3168E-03  0.1726E-03  0.1938E-02  0.1006E-02  0.2709E-03  0.8254E-04  0.1220E-03  0.2592E-04  0.1154E-03  0.3175E-04  0.5069E-04  0.1715E-04  0.1441E-03  0.3830E-04
     -1.126  0.2713E-01  0.1861E-01  0.8585E-03  0.4130E-03  0.4644E-03  0.2123E-03  0.2483E-02  0.1364E-02  0.4018E-03  0.1237E-03  0.2380E-03  0.4072E-04  0.1754E-03  0.5002E-04  0.8799E-04  0.2296E-04  0.2207E-03  0.6230E-04
     -0.945  0.2970E-01  0.2262E-01  0.1105E-02  0.6060E-03  0.6363E-03  0.3082E-03  0.2971E-02  0.1879E-02  0.5596E-03  0.1888E-03  0.4005E-03  0.7942E-04  0.2501E-03  0.7793E-04  0.1413E-03  0.3603E-04  0.3159E-03  0.9899E-04
     -0.764  0.2902E-01  0.2636E-01  0.1337E-02  0.8395E-03  0.8568E-03  0.4509E-03  0.3477E-02  0.2404E-02  0.7942E-03  0.2748E-03  0.6502E-03  0.1513E-03  0.3928E-03  0.1150E-03  0.2431E-03  0.6058E-04  0.5339E-03  0.1483E-03
     -0.583  0.3140E-01  0.2881E-01  0.1564E-02  0.1080E-02  0.1035E-02  0.6171E-03  0.4094E-02  0.2870E-02  0.1179E-02  0.3756E-03  0.8425E-03  0.2513E-03  0.6139E-03  0.1594E-03  0.3428E-03  0.9497E-04  0.7329E-03  0.2082E-03
     -0.403  0.3392E-01  0.2767E-01  0.1800E-02  0.1305E-02  0.1221E-02  0.8364E-03  0.4784E-02  0.3304E-02  0.1641E-02  0.5029E-03  0.1068E-02  0.4093E-03  0.8857E-03  0.2327E-03  0.4654E-03  0.1592E-03  0.9661E-03  0.3401E-03
     -0.222  0.3659E-01  0.2966E-01  0.2044E-02  0.1521E-02  0.1414E-02  0.1003E-02  0.5544E-02  0.3854E-02  0.2181E-02  0.7213E-03  0.1327E-02  0.5199E-03  0.1208E-02  0.3465E-03  0.6111E-03  0.2179E-03  0.1233E-02  0.4588E-03
     -0.041  0.3940E-01  0.3175E-01  0.2297E-02  0.1743E-02  0.1616E-02  0.1177E-02  0.6377E-02  0.4462E-02  0.2798E-02  0.9794E-03  0.1619E-02  0.6472E-03  0.1581E-02  0.4837E-03  0.7799E-03  0.2886E-03  0.1535E-02  0.5960E-03
      0.140  0.4235E-01  0.3393E-01  0.2559E-02  0.1973E-02  0.1825E-02  0.1356E-02  0.7281E-02  0.5130E-02  0.3492E-02  0.1277E-02  0.1944E-02  0.7914E-03  0.2005E-02  0.6444E-03  0.9717E-03  0.3714E-03  0.1870E-02  0.7517E-03
      0.321  0.4566E-01  0.3621E-01  0.2963E-02  0.2210E-02  0.2235E-02  0.1542E-02  0.8409E-02  0.5858E-02  0.4671E-02  0.1614E-02  0.2920E-02  0.9524E-03  0.2806E-02  0.8286E-03  0.1475E-02  0.4663E-03  0.2396E-02  0.9259E-03
      0.502  0.5061E-01  0.3859E-01  0.3545E-02  0.2454E-02  0.2850E-02  0.1734E-02  0.1008E-01  0.6644E-02  0.6777E-02  0.1991E-02  0.4753E-02  0.1130E-02  0.4355E-02  0.1036E-02  0.2185E-02  0.5732E-03  0.3423E-02  0.1119E-02
      0.682  0.5484E-01  0.4014E-01  0.4025E-02  0.2652E-02  0.3425E-02  0.1926E-02  0.1201E-01  0.7424E-02  0.9433E-02  0.2402E-02  0.6963E-02  0.1351E-02  0.6477E-02  0.1282E-02  0.3018E-02  0.7509E-03  0.4850E-02  0.1322E-02
      0.863  0.5885E-01  0.4318E-01  0.4319E-02  0.3108E-02  0.3808E-02  0.2390E-02  0.1440E-01  0.8560E-02  0.1419E-01  0.3266E-02  0.9846E-02  0.2105E-02  0.1022E-01  0.1819E-02  0.3939E-02  0.1058E-02  0.6910E-02  0.1722E-02
      1.044  0.6718E-01  0.4568E-01  0.4821E-02  0.3505E-02  0.4267E-02  0.2840E-02  0.1750E-01  0.9796E-02  0.2386E-01  0.4289E-02  0.1468E-01  0.2991E-02  0.1738E-01  0.2522E-02  0.4947E-02  0.1402E-02  0.9699E-02  0.2278E-02
      1.225  0.7712E-01  0.4729E-01  0.5334E-02  0.3798E-02  0.4794E-02  0.3238E-02  0.2103E-01  0.1109E-01  0.3756E-01  0.5494E-02  0.2137E-01  0.3987E-02  0.2770E-01  0.3412E-02  0.6126E-02  0.1777E-02  0.1324E-01  0.2990E-02
      1.406  0.1028E+00  0.4867E-01  0.6089E-02  0.4004E-02  0.6412E-02  0.3554E-02  0.2711E-01  0.1242E-01  0.8521E-01  0.7165E-02  0.5907E-01  0.5108E-02  0.6686E-01  0.4620E-02  0.8401E-02  0.2167E-02  0.2752E-01  0.3829E-02
      1.586  0.9851E-01  0.5165E-01  0.6265E-02  0.4309E-02  0.7290E-02  0.3899E-02  0.3149E-01  0.1400E-01  0.9189E-01  0.9653E-02  0.6465E-01  0.6515E-02  0.1214E+00  0.6306E-02  0.1181E-01  0.2575E-02  0.6531E-01  0.4792E-02
      1.767  0.1102E+00  0.5536E-01  0.6981E-02  0.4642E-02  0.9161E-02  0.4258E-02  0.5001E-01  0.1578E-01  0.1249E+00  0.1312E-01  0.8349E-01  0.8294E-02  0.2086E+00  0.8625E-02  0.1995E-01  0.3019E-02  0.1065E+00  0.5905E-02
      1.948  0.9397E-01  0.5949E-01  0.8437E-02  0.4980E-02  0.9447E-02  0.4638E-02  0.6137E-01  0.1773E-01  0.1293E+00  0.1741E-01  0.8912E-01  0.1042E-01  0.3268E+00  0.1150E-01  0.3244E-01  0.3512E-02  0.1551E+00  0.7172E-02
      2.129  0.6186E-01  0.6404E-01  0.7762E-02  0.5324E-02  0.7479E-02  0.5039E-02  0.4586E-01  0.1985E-01  0.1024E+00  0.2251E-01  0.9930E-01  0.1290E-01  0.2220E+00  0.1494E-01  0.4130E-01  0.4054E-02  0.1405E+00  0.8591E-02
      2.310  0.3232E-01  0.7176E-01  0.6239E-02  0.5932E-02  0.4639E-02  0.5738E-02  0.2286E-01  0.2247E-01  0.6438E-01  0.3076E-01  0.1011E+00  0.1828E-01  0.8292E-01  0.2043E-01  0.4200E-01  0.4684E-02  0.1062E+00  0.1091E-01
      2.491  0.1623E-01  0.9881E-01  0.5840E-02  0.7165E-02  0.2812E-02  0.8280E-02  0.1626E-01  0.3184E-01  0.3705E-01  0.7007E-01  0.8185E-01  0.5329E-01  0.5057E-01  0.4991E-01  0.3143E-01  0.7861E-02  0.1026E+00  0.2479E-01
      2.671  0.4809E-02  0.8930E-01  0.8744E-02  0.6445E-02  0.3103E-02  0.8391E-02  0.1395E-01  0.3470E-01  0.1682E-01  0.7229E-01  0.5993E-01  0.5408E-01  0.5850E-01  0.5722E-01  0.2158E-01  0.1043E-01  0.1158E+00  0.2759E-01
      2.852  0.9463E-03  0.8379E-01  0.4305E-01  0.6005E-02  0.2987E-01  0.8204E-02  0.1688E-01  0.3727E-01  0.3862E+00  0.7620E-01  0.6024E-01  0.5852E-01  0.1181E+00  0.6571E-01  0.5188E+00  0.1346E-01  0.1712E+00  0.3222E-01
      3.033  0.2547E-02  0.7489E-01  0.3135E-01  0.6202E-02  0.2068E-01  0.8075E-02  0.1723E-01  0.4122E-01  0.2316E+00  0.7545E-01  0.2480E+00  0.5815E-01  0.1481E+00  0.1117E+00  0.5514E+00  0.1720E-01  0.1829E+00  0.7815E-01
      3.214  0.4889E-02  0.7259E-01  0.2185E-01  0.7408E-02  0.1084E-01  0.8171E-02  0.1494E-01  0.5768E-01  0.1186E+00  0.8298E-01  0.1762E+00  0.5983E-01  0.1219E+00  0.1886E+00  0.3404E+00  0.2343E-01  0.1615E+00  0.1444E+00
      3.395  0.7620E-02  0.5402E-01  0.1720E-01  0.9176E-02  0.1741E-01  0.9111E-02  0.8071E-02  0.4480E-01  0.1477E+00  0.7823E-01  0.9572E-01  0.7298E-01  0.7526E-01  0.1927E+00  0.1990E+00  0.3077E-01  0.5751E-01  0.1066E+00
      3.575  0.1149E-01  0.3520E-01  0.2725E-01  0.8397E-02  0.2980E-01  0.7069E-02  0.1643E-01  0.2781E-01  0.1771E+00  0.5587E-01  0.1415E+00  0.7255E-01  0.5655E-01  0.1109E+00  0.1766E+00  0.3252E-01  0.6942E-01  0.7305E-01
      3.756  0.1809E-01  0.2035E-01  0.4006E-01  0.7645E-02  0.3797E-01  0.4778E-02  0.2956E-01  0.1840E-01  0.2451E+00  0.3570E-01  0.2536E+00  0.6324E-01  0.6831E-01  0.6186E-01  0.2060E+00  0.3046E-01  0.1129E+00  0.6394E-01
      3.937  0.2905E-01  0.7701E-02  0.6288E-01  0.8017E-02  0.4447E-01  0.3227E-02  0.5536E-01  0.1601E-01  0.3982E+00  0.1201E-01  0.3989E+00  0.5786E-01  0.8905E-01  0.4506E-01  0.3685E+00  0.1259E-01  0.1976E+00  0.6589E-01
      4.118  0.1566E-01  0.2443E-03  0.3567E-01  0.1163E-01  0.2698E-01  0.3179E-02  0.2445E-01  0.8355E-02  0.1547E+00  0.9546E-02  0.1733E+00  0.4973E-02  0.3610E-01  0.5855E-01  0.2217E+00  0.1452E-01  0.1004E+00  0.9492E-01
      4.299  0.8608E-02  0.9156E-03  0.2304E-01  0.4758E-01  0.1678E-01  0.1911E-01  0.1366E-01  0.2684E-01  0.5856E-01  0.2027E+00  0.8816E-01  0.1170E+00  0.1669E-01  0.1100E+00  0.9317E-01  0.3774E+00  0.6440E-01  0.1506E+00
      4.480  0.5920E-02  0.2159E-02  0.1811E-01  0.4079E-01  0.1313E-01  0.2084E-01  0.1025E-01  0.2102E-01  0.5012E-01  0.2142E+00  0.8124E-01  0.2101E+00  0.1474E-01  0.1192E+00  0.8388E-01  0.4758E+00  0.5229E-01  0.1436E+00