    1    1    1    2
  0.1051229E+02  0.2390230E-09  0.2390230E-09  0.2390230E-09  0.5000000E-15
  1.000000000000000E-004
  CAR 
 Fe BCC                                  
      8     26     12
 
  0.6250000E-01  0.6250000E-01  0.6250000E-01  0.1562500E-01
    1       -1.440799     -1.071871   1.000000   1.000000
    2        3.861872      5.466264   1.000000   1.000000
    3        3.861872      5.466264   1.000000   1.000000
    4        4.785980      6.467834   1.000000   0.688865
    5        5.547178      7.664543   1.000000   0.000000
    6        5.547178      7.664543   1.002881   0.000000
    7       28.692708     29.166799   0.000000   0.000000
    8       28.692708     29.166799   0.000000   0.000000
    9       33.093784     33.243387   0.000000   0.000000
   10       33.421028     34.214432   0.000000   0.000000
   11       38.850222     39.300226   0.000000   0.000000
   12       38.850222     39.300226   0.000000   0.000000
 
  0.1875000E+00  0.6250000E-01  0.6250000E-01  0.4687500E-01
    1        0.232639      0.677191   1.000000   1.000000
    2        3.386545      4.925761   1.000000   1.000000
    3        3.628279      5.131415   1.000000   1.000000
    4        5.464654      7.521341   1.000000  -0.054615
    5        5.694268      7.673269   1.001756   0.000000
    6        5.950190      7.841169   0.861864   0.000000
    7       23.300377     24.041282   0.000000   0.000000
    8       26.332952     26.871104   0.000000   0.000000
    9       29.285929     30.010436   0.000000   0.000000
   10       33.614577     33.919879   0.000000   0.000000
   11       38.452391     39.125652   0.000000   0.000000
   12       39.450042     39.887012   0.000000   0.000000
 
  0.3125000E+00  0.6250000E-01  0.6250000E-01  0.4687500E-01
    1        1.379098      2.296073   1.000000   1.000000
    2        2.981466      4.465379   1.000000   1.000000
    3        4.460218      5.509310   1.000000   1.000000
    4        5.622006      7.658631   1.000000  -0.000014
    5        5.813568      7.994993   1.033784   0.000000
    6        7.513788      9.158324  -0.007126   0.000000
    7       17.764456     18.735763   0.000000   0.000000
    8       24.541377     25.049120   0.000000   0.000000
    9       26.753623     27.415315   0.000000   0.000000
   10       33.248541     33.739347   0.000000   0.000000
   11       37.761007     38.437181   0.000000   0.000000
   12       42.840737     43.233679   0.000000   0.000000
 
  0.4375000E+00  0.6250000E-01  0.6250000E-01  0.2343750E-01
    1        1.415226      2.571129   1.000000   1.000000
    2        2.826507      4.289879   1.000000   1.000000
    3        5.557112      6.509565   1.000000   1.000000
    4        5.699710      7.743978   1.000000   0.000000
    5        5.863183      8.061384   1.068557   0.000000
    6        8.865980     10.179690  -0.004597   0.000000
    7       14.665003     15.883219   0.000000   0.000000
    8       23.872448     24.356370   0.000000   0.000000
    9       25.803222     26.426644   0.000000   0.000000
   10       33.061277     33.610284   0.000000   0.000000
   11       37.695833     38.397248   0.000000   0.000000
   12       42.580832     42.887501   0.000000   0.000000
 
 -0.6250000E-01  0.6250000E-01  0.6250000E-01  0.1171875E-01
    1       -2.095720     -1.734573   1.000000   1.000000
    2        4.098456      5.732265   1.000000   1.000000
    3        4.098456      5.732265   1.000000   1.000000
    4        4.200430      5.850540   1.000000   1.098872
    5        5.458668      7.565397   1.000000   0.000000
    6        5.695465      7.847379   1.000000   0.000000
    7       30.483894     30.776540   0.000000   0.000000
    8       31.900833     32.158051   0.000000   0.000000
    9       31.900833     32.158051   0.000000   0.000000
   10       35.637265     36.148651   0.000000   0.000000
   11       38.141892     38.896040   0.000000   0.000000
   12       38.141892     38.896040   0.000000   0.000000
 
  0.1875000E+00  0.1875000E+00  0.6250000E-01  0.4687500E-01
    1        1.775101      2.458655   1.000000   1.000000
    2        3.064357      4.516325   1.000000   1.000000
    3        3.286215      4.665515   1.000000   1.000000
    4        5.557922      7.621095   1.000000  -0.000187
    5        5.846110      8.002163   1.001321   0.000000
    6        7.753438      9.385394  -0.025729   0.000000
    7       20.680071     21.510223   0.000000   0.000000
    8       21.624682     22.337375   0.000000   0.000000
    9       25.751770     26.397108   0.000000   0.000000
   10       35.647855     35.943115   0.000000   0.000000
   11       39.762911     40.263158   0.000000   0.000000
   12       42.287819     42.791166   0.000000   0.000000
 
  0.3125000E+00  0.1875000E+00  0.6250000E-01  0.9375000E-01
    1        2.114252      3.289733   1.000000   1.000000
    2        2.869326      4.275951   1.000000   1.000000
    3        3.994985      5.139096   1.000000   1.000000
    4        5.719901      7.789397   1.000000   0.000000
    5        5.948958      8.091266   1.010769   0.000000
    6       10.311004     11.609510  -0.002842   0.000000
    7       16.008184     17.028005   0.000000   0.000000
    8       19.945949     20.681960   0.000000   0.000000
    9       24.354114     24.976584   0.000000   0.000000
   10       36.126669     36.515620   0.000000   0.000000
   11       40.691674     41.077349   0.000000   0.000000
   12       43.037075     43.619124   0.000000   0.000000
 
 -0.1875000E+00  0.1875000E+00  0.6250000E-01  0.4687500E-01
    1       -0.833501     -0.448019   1.000000   1.000000
    2        3.786568      5.377057   1.000000   1.000000
    3        4.010740      5.601700   1.000000   1.000000
    4        4.907337      6.606346   1.000000   0.367406
    5        5.166070      7.187103   1.000000   0.000000
    6        5.811954      7.972854   1.007307   0.000000
    7       26.187565     26.815478   0.000000   0.000000
    8       29.547865     29.941608   0.000000   0.000000
    9       30.651541     31.205619   0.000000   0.000000
   10       34.991205     35.510408   0.000000   0.000000
   11       35.258765     35.907646   0.000000   0.000000
   12       36.851030     37.390533   0.000000   0.000000
 
  0.3125000E+00  0.3125000E+00  0.6250000E-01  0.1562500E-01
    1        2.461503      3.788215   1.000000   1.000000
    2        3.279220      4.544456   1.000000   1.000000
    3        3.279220      4.544456   1.000000   1.000000
    4        5.881465      7.981569   1.000000   0.000000
    5        5.881465      7.981569   1.003722   0.000000
    6       13.971134     15.028693   0.000000   0.000000
    7       13.971134     15.028693   0.000000   0.000000
    8       16.789264     17.642585   0.000000   0.000000
    9       23.861650     24.506718   0.000000   0.000000
   10       38.655859     39.008347   0.000000   0.000000
   11       38.655859     39.008347   0.000000   0.000000
   12       46.526061     47.219085   0.000000   0.000000
 
 -0.3125000E+00  0.3125000E+00  0.6250000E-01  0.4687500E-01
    1        0.854001      1.483705   1.000000   1.000000
    2        3.326180      4.858420   1.000000   1.000000
    3        4.066149      5.402929   1.000000   1.000000
    4        5.378259      7.314118   1.000000  -0.027631
    5        6.007708      7.869057   1.014275   0.000000
    6        6.073347      8.124529   0.671639   0.000000
    7       20.380696     21.252604   0.000000   0.000000
    8       27.021100     27.401913   0.000000   0.000000
    9       28.637932     29.331057   0.000000   0.000000
   10       33.204811     33.833139   0.000000   0.000000
   11       35.302939     35.931635   0.000000   0.000000
   12       38.188361     38.660921   0.000000   0.000000
 
 -0.1875000E+00  0.3125000E+00  0.6250000E-01  0.4687500E-01
    1        0.683688      1.178861   1.000000   1.000000
    2        3.546433      5.119497   1.000000   1.000000
    3        3.766362      5.283600   1.000000   1.000191
    4        5.001301      6.919033   1.000000  -0.023788
    5        5.780187      7.575142   1.003885   0.000000
    6        6.208999      8.267037   0.699403   0.000000
    7       23.339336     24.116729   0.000000   0.000000
    8       24.490417     25.148734   0.000000   0.000000
    9       30.994180     31.494246   0.000000   0.000000
   10       31.549280     32.112141   0.000000   0.000000
   11       35.405509     35.968166   0.000000   0.000000
   12       40.199717     40.690188   0.000000   0.000000
 
 -0.4375000E+00  0.4375000E+00  0.6250000E-01  0.4687500E-01
    1        1.285619      2.389150   1.000000   1.000000
    2        3.015604      4.511248   1.000000   1.000000
    3        4.978769      6.262760   1.000000   1.000000
    4        5.587736      7.562808   1.000000  -0.000044
    5        7.018205      8.686757   0.271238   0.000000
    6        7.258917      8.909752   0.004232   0.000000
    7       15.567626     16.708456   0.000000   0.000000
    8       25.556195     25.903908   0.000000   0.000000
    9       26.942163     27.588161   0.000000   0.000000
   10       32.468791     33.152642   0.000000   0.000000
   11       35.687218     36.391745   0.000000   0.000000
   12       39.741730     40.130789   0.000000   0.000000
 
 -0.3125000E+00  0.4375000E+00  0.6250000E-01  0.9375000E-01
    1        1.759349      2.722269   1.000000   1.000000
    2        3.189893      4.668324   1.000000   1.000000
    3        3.842934      5.198426   1.000000   1.000548
    4        5.342044      7.241447   1.000000  -0.004736
    5        6.243769      8.221308   1.004962   0.000000
    6        8.031077      9.606319  -0.038149   0.000000
    7       18.134191     19.081341   0.000000   0.000000
    8       22.122647     22.828842   0.000000   0.000000
    9       28.860404     29.353187   0.000000   0.000000
   10       32.192115     32.780803   0.000000   0.000000
   11       35.969498     36.499404   0.000000   0.000000
   12       40.844591     41.426603   0.000000   0.000000
 
 -0.4375000E+00 -0.4375000E+00  0.6250000E-01  0.4687500E-01
    1        1.778538      2.999420   1.000000   1.000000
    2        3.171060      4.654268   1.000000   1.000000
    3        4.052382      5.387195   1.000000   1.000552
    4        5.471604      7.408511   1.000000  -0.000014
    5        6.621097      8.523418   0.661870   0.000000
    6       10.039790     11.230663  -0.001585   0.000000
    7       14.738397     15.913148   0.000000   0.000000
    8       21.383279     22.076695   0.000000   0.000000
    9       27.952252     28.419525   0.000000   0.000000
   10       32.620615     33.282499   0.000000   0.000000
   11       36.779850     37.183927   0.000000   0.000000
   12       40.155327     40.796884   0.000000   0.000000
 
 -0.3125000E+00 -0.4375000E+00  0.6250000E-01  0.4687500E-01
    1        2.552085      3.808331   1.000000   1.000000
    2        2.853878      4.262286   1.000000   1.000000
    3        3.462223      4.856367   1.000000   1.001474
    4        5.681447      7.587496   1.000000  -0.000020
    5        6.205147      8.142190   1.060024   0.000000
    6       11.432679     12.654665  -0.000374   0.000000
    7       16.035383     17.063733   0.000000   0.000000
    8       17.583627     18.393866   0.000000   0.000000
    9       29.401945     29.966230   0.000000   0.000000
   10       32.440230     32.929088   0.000000   0.000000
   11       34.771886     35.257580   0.000000   0.000000
   12       42.809950     43.603533   0.000000   0.000000
 
  0.1875000E+00  0.1875000E+00  0.1875000E+00  0.1562500E-01
    1        2.849281      3.946282   1.000000   1.000000
    2        2.849281      4.217630   1.000000   1.000000
    3        3.040308      4.217630   1.000000   1.000000
    4        5.828788      7.995142   1.000000   0.000000
    5        5.828788      7.995142   1.000000   0.000000
    6       10.341319     11.706867  -0.003769   0.000000
    7       18.966032     19.809531   0.000000   0.000000
    8       18.966032     19.809531   0.000000   0.000000
    9       20.645826     21.288859   0.000000   0.000000
   10       40.460638     40.616379   0.000000   0.000000
   11       43.503036     43.920363   0.000000   0.000000
   12       43.503036     43.920363   0.000000   0.000000
 
  0.3125000E+00  0.1875000E+00  0.1875000E+00  0.2343750E-01
    1        2.719250      3.960902   1.000000   1.000000
    2        2.802459      4.139614   1.000000   1.000000
    3        3.539996      4.726130   1.000000   1.000000
    4        5.867576      8.034964   1.000000   0.000000
    5        5.893205      8.097720   1.000005   0.000000
    6       13.217259     14.275133   0.000000   0.000000
    7       15.253447     16.270953   0.000000   0.000000
    8       18.374210     19.218589   0.000000   0.000000
    9       19.627243     20.281404   0.000000   0.000000
   10       41.652848     41.910579   0.000000   0.000000
   11       45.256860     45.584088   0.000000   0.000000
   12       45.902930     46.421518   0.000000   0.000000
 
 -0.1875000E+00  0.1875000E+00  0.1875000E+00  0.1171875E-01
    1        0.265157      0.703769   1.000000   1.000000
    2        4.247118      5.861893   1.000000   1.000000
    3        4.264472      5.861893   1.000000   1.000239
    4        4.264472      6.128856   1.000000   1.068671
    5        4.921843      6.629291   1.000000   0.000000
    6        6.223993      8.352021   0.837655   0.000000
    7       26.166085     26.810401   0.000000   0.000000
    8       27.546975     28.249280   0.000000   0.000000
    9       27.546975     28.249280   0.000000   0.000000
   10       29.530185     29.994782   0.000000   0.000000
   11       39.292587     39.741961   0.000000   0.000000
   12       39.292587     39.741961   0.000000   0.000000
 
 -0.3125000E+00  0.3125000E+00  0.1875000E+00  0.4687500E-01
    1        1.620679      2.353853   1.000000   1.000000
    2        3.342693      4.965903   1.000000   1.000000
    3        4.101530      5.676149   1.000000   1.009607
    4        4.880209      6.586276   1.000000   0.160595
    5        5.937066      7.719446   1.045036   0.000000
    6        7.114846      8.933983   0.055475   0.000000
    7       21.250358     22.094314   0.000000   0.000000
    8       24.849466     25.573785   0.000000   0.000000
    9       25.845183     26.474023   0.000000   0.000000
   10       30.095410     30.639301   0.000000   0.000000
   11       38.348003     38.938330   0.000000   0.000000
   12       40.239449     40.777629   0.000000   0.000000
 
 -0.4375000E+00  0.4375000E+00  0.1875000E+00  0.4687500E-01
    1        1.896242      3.134578   1.000000   1.000000
    2        3.258517      4.667516   1.000000   1.000000
    3        3.872136      5.420820   1.000000   1.022356
    4        5.145796      6.936570   1.000000  -0.000959
    5        6.923149      8.804954   0.128229   0.000000
    6        9.636786     10.863509  -0.009788   0.000000
    7       16.042923     17.083605   0.000000   0.000000
    8       23.126737     23.804097   0.000000   0.000000
    9       24.968588     25.605969   0.000000   0.000000
   10       32.584591     33.095801   0.000000   0.000000
   11       37.377318     37.993804   0.000000   0.000000
   12       38.272696     38.928474   0.000000   0.000000
 
 -0.3125000E+00  0.4375000E+00  0.1875000E+00  0.4687500E-01
    1        2.265767      3.392503   1.000000   1.000000
    2        2.621401      4.170409   1.000000   1.000000
    3        4.195859      5.763853   1.000000   1.017973
    4        5.330510      7.052242   1.000002  -0.010731
    5        6.434299      8.279930   0.901629   0.000000
    6        9.569834     10.890563  -0.012202   0.000000
    7       18.988669     19.916784   0.000000   0.000000
    8       19.697137     20.437589   0.000000   0.000000
    9       27.335509     28.021713   0.000000   0.000000
   10       29.042335     29.586267   0.000000   0.000000
   11       37.083478     37.695010   0.000000   0.000000
   12       40.424158     41.151653   0.000000   0.000000
 
 -0.4375000E+00 -0.4375000E+00  0.1875000E+00  0.4687500E-01
    1        2.203764      3.619663   1.000000   1.000000
    2        2.634167      4.052198   1.000000   1.000000
    3        3.967999      5.482691   1.000000   1.037711
    4        5.693125      7.456679   1.000033  -0.000016
    5        6.698646      8.556246   0.269745   0.000000
    6       12.652081     13.686798   0.000000   0.000000
    7       15.122446     16.147754   0.000000   0.000000
    8       18.625169     19.399296   0.000000   0.000000
    9       27.367788     28.017105   0.000000   0.000000
   10       30.573589     31.136696   0.000000   0.000000
   11       34.707107     35.366984   0.000000   0.000000
   12       39.353826     40.077693   0.000000   0.000000
 
 -0.3125000E+00  0.3125000E+00  0.3125000E+00  0.1171875E-01
    1        2.030524      3.122968   1.000000   1.000000
    2        2.573119      4.194055   1.000000   1.000000
    3        5.147451      6.779884   1.000000   0.676977
    4        5.147451      6.779884   1.000005  -0.007621
    5        5.979177      7.777418   1.168857   0.000000
    6        8.903555     10.255694  -0.017369   0.000000
    7       21.733786     22.437429   0.000000   0.000000
    8       21.733786     22.437429   0.000000   0.000000
    9       23.942442     24.893681   0.000000   0.000000
   10       26.267366     26.871301   0.000000   0.000000
   11       38.827714     39.562499   0.000000   0.000000
   12       43.311086     43.895452   0.000000   0.000000
 
 -0.4375000E+00  0.4375000E+00  0.3125000E+00  0.4687500E-01
    1        1.901996      3.308321   1.000000   1.000000
    2        2.053047      3.528499   1.000000   1.000000
    3        5.309004      6.972920   1.000000   0.359551
    4        5.636320      7.315456   1.001997  -0.001377
    5        6.792376      8.661427   0.082694   0.000000
    6       12.125020     13.092982   0.000000   0.000000
    7       17.151311     17.966733   0.000000   0.000000
    8       19.768465     20.399432   0.000000   0.000000
    9       24.198188     25.105782   0.000000   0.000000
   10       27.180047     27.874640   0.000000   0.000000
   11       34.152222     34.928080   0.000000   0.000000
   12       42.793555     43.345953   0.000000   0.000000
 
 -0.4375000E+00 -0.4375000E+00  0.3125000E+00  0.1562500E-01
    1        1.741484      3.202139   1.000000   1.000000
    2        1.741484      3.202139   1.000000   1.000000
    3        5.430126      7.079162   1.000000   0.183254
    4        6.607078      8.434688   0.988322   0.000000
    5        6.607079      8.434688   0.122876   0.000000
    6       15.640911     16.431712   0.000000   0.000000
    7       15.640911     16.431712   0.000000   0.000000
    8       16.901855     17.569724   0.000000   0.000000
    9       25.661690     26.488618   0.000000   0.000000
   10       25.661690     26.488618   0.000000   0.000000
   11       31.697420     32.495817   0.000000   0.000000
   12       43.396671     43.940182   0.000000   0.000000
 
 -0.4375000E+00  0.4375000E+00  0.4375000E+00  0.1171875E-01
    1        1.440467      2.884488   1.000000   1.000000
    2        1.443167      2.915923   1.000000   1.000000
    3        6.558014      8.374014   1.000000  -0.041293
    4        6.558014      8.374014   1.004572   0.000000
    5        6.752504      8.622271   0.021930   0.000000
    6       14.969487     15.623853   0.000000   0.000000
    7       17.563611     18.074953   0.000000   0.000000
    8       17.563611     18.074953   0.000000   0.000000
    9       23.139251     24.255827   0.000000   0.000000
   10       24.347114     25.294127   0.000000   0.000000
   11       30.149057     30.969987   0.000000   0.000000
   12       46.484496     46.933661   0.000000   0.000000
