Automatically generated mesh
      26
Reciprocal lattice
    0.06250000000000    0.06250000000000    0.06250000000000             8
    0.18750000000000    0.06250000000000    0.06250000000000            24
    0.31250000000000    0.06250000000000    0.06250000000000            24
    0.43750000000000    0.06250000000000    0.06250000000000            12
   -0.06250000000000    0.06250000000000    0.06250000000000             6
    0.18750000000000    0.18750000000000    0.06250000000000            24
    0.31250000000000    0.18750000000000    0.06250000000000            48
   -0.18750000000000    0.18750000000000    0.06250000000000            24
    0.31250000000000    0.31250000000000    0.06250000000000             8
   -0.31250000000000    0.31250000000000    0.06250000000000            24
   -0.18750000000000    0.31250000000000    0.06250000000000            24
   -0.43750000000000    0.43750000000000    0.06250000000000            24
   -0.31250000000000    0.43750000000000    0.06250000000000            48
   -0.43750000000000   -0.43750000000000    0.06250000000000            24
   -0.31250000000000   -0.43750000000000    0.06250000000000            24
    0.18750000000000    0.18750000000000    0.18750000000000             8
    0.31250000000000    0.18750000000000    0.18750000000000            12
   -0.18750000000000    0.18750000000000    0.18750000000000             6
   -0.31250000000000    0.31250000000000    0.18750000000000            24
   -0.43750000000000    0.43750000000000    0.18750000000000            24
   -0.31250000000000    0.43750000000000    0.18750000000000            24
   -0.43750000000000   -0.43750000000000    0.18750000000000            24
   -0.31250000000000    0.31250000000000    0.31250000000000             6
   -0.43750000000000    0.43750000000000    0.31250000000000            24
   -0.43750000000000   -0.43750000000000    0.31250000000000             8
   -0.43750000000000    0.43750000000000    0.43750000000000             6
Tetrahedra
       534    0.00032552083333
         4         1         2         2         6
         8         2         2         6         6
         4         2         6         6        16
         4         2         3         6         7
         4         2         6         6         7
        12         6         6         7        16
         8         3         6         7         7
         8         6         7         7        17
         8         6         7        16        17
         4         3         4         7         7
         4         3         7         7         7
        16         7         7         7        17
         8         4         7         7         7
         4         7         7         7        16
        20         7         7        16        17
         4         3         4         6         7
         4         4         6         7         7
        16         6         7         7        16
         8         3         6         6         7
         4         6         6         6         7
         4         2         2         3         6
         8         2         3         6         6
         4         2         6         6         6
         4         2         2         2         6
         8         2         2         6        11
         4         2         6         6        11
        16         1         2         2         8
         4         2         2         2         8
        12         2         2         8        11
        16         1         2         8         8
         4         2         8         8        18
         4         2         8        11        18
        20         1         5         8         8
         4         1         8         8         8
         4         8         8         8        18
         8         5         8         8         8
         4         8         8         8        11
         4         8         8        11        18
         8         1         2         5         8
         8         2         5         8         8
         8         2         8         8        11
         4         2         2         6         8
         4         2         6         8        11
         4         6         7         9        16
        16         7         9        16        17
        12         9        16        17        17
        20         7         7         9        17
        12         7         9        17        17
         8         7         7        17        17
        12         3         6         7        16
         8         3         7         7        16
         8         3         6         6        16
         4         3         6        13        16
         4         3         7        13        16
         4         2         6         6        10
         4         3         6         6        10
         8         3         6        10        13
        12         2         6        10        11
         4         6        10        11        19
         4         6        10        13        19
         4         2         8        11        11
         4         2        10        11        11
         4        10        11        11        19
         8         8        11        11        18
         8        11        11        18        19
         4        11        11        19        19
         4         8         8        10        18
        12         8        10        11        18
        12        10        11        18        19
         4        10        11        13        18
         4        10        13        18        19
         4         2         3         8        11
         4         3         8        10        11
         8         3        10        11        13
        16         2         3         6        11
         4         3         6         7        11
         4         3         7        11        13
         4         4         7         9        17
         8         4         7         7        17
         4         4         7        14        17
         4         3         7         7        12
         8         4         7         7        12
         8         4         7        12        14
         8         3         7        12        13
         4         7        12        13        20
         4         7        12        14        20
         4         3        10        13        13
         4         3        12        13        13
         4        12        13        13        20
         8        10        13        13        19
        12        13        13        19        21
         4        13        13        20        21
         8        10        11        13        19
         8        11        13        19        19
         4        13        19        19        20
         8        13        19        20        21
         4        10        11        12        19
         4        11        12        13        19
         8        12        13        19        20
         8        10        12        13        19
         4        12        13        14        19
         4        12        14        19        20
         4         3         4        10        13
         4         4        10        12        13
        12         4        12        13        14
        12         3         4         7        13
         8         4         7         7        13
        12         4         7        13        14
         4         4        12        14        14
         4        12        14        14        20
         4        14        14        20        22
         4        12        13        15        20
         4        12        14        15        20
         8        14        15        20        22
        12        13        15        20        21
        12        15        20        21        22
         4        15        20        22        22
         4        13        13        14        21
        12        13        14        15        21
        16        14        15        21        22
         8        13        14        20        21
         4        14        20        20        21
        12        14        20        21        22
         4        12        12        13        20
         8        12        13        14        20
         8        12        14        20        20
         8        12        12        14        20
         4        12        13        20        20
        16         3         4        12        14
         8         3        12        12        14
         8         3        12        13        14
        16         3         4         7        14
         4         3         6         7        14
         4         3         6        13        14
         8        14        15        15        22
         8        15        15        22        22
         8        15        21        22        22
        12        13        14        15        22
         4        13        15        15        22
         8        13        15        21        22
        12        13        14        20        22
         4        13        19        20        22
         4        13        19        21        22
         4        10        12        14        20
         4        10        13        14        20
         8        10        13        19        20
         8        10        12        13        20
         4        10        11        13        20
         4        10        11        19        20
         4         2         3        12        13
         4         2        10        12        13
         8         2        10        11        13
        12         2         3         6        13
         4         2         2         6        13
         4         2         2        11        13
         4        11        13        15        21
         8        11        13        19        21
         4        11        18        19        21
         4         8        10        13        19
         4         8        11        13        19
         8         8        11        18        19
         8         8        10        11        19
         4         8         8        11        19
         4         8         8        18        19
         4         1         2        10        11
         4         1         8        10        11
         8         1         8         8        11
         8         1         2         2        11
        12         1         2         8        11
         4         5         8        11        18
         4         5         8         8        18
         4         1         5         8        18
         4         5         5         8         8
        12         1         5         5         8
         6         1         1         5         5
         8         1         1         5         8
         4         1         1         2         8
         4         2         3         6        16
         4         3         7        16        17
        12         7        16        17        17
         8         7        17        17        17
        12         7         7         9        16
         4         6         6         7         7
        16         3         6         7        13
        12         6         7         7        13
         4         3         6         6        11
        12         3         6        11        13
        12         2         3        10        11
         4         3        10        11        19
         4         3        11        13        19
         4         2         8        10        18
         4         2        10        11        18
         4        10        18        19        19
         4         8         8        11        11
         4         8        10        11        11
         4        10        11        11        13
         4        11        11        13        19
         4         2         6         8        10
         4         6         8        10        11
        12         6        10        11        13
         8         2         3         6        10
         4         3         6         7        10
         4         6         7        10        13
         4        16        17        17        17
         4        17        17        17        17
         4         9        17        17        17
         8         7         7        15        17
         8         7         9        15        17
         4         6         7        13        16
         4         7         7        13        16
        12         7         7        13        15
         8         6         7        13        13
         4         7        13        13        21
         4         7        13        15        21
         4         6        11        13        19
         4         6        13        13        19
         4        13        19        19        23
         4        13        19        21        23
         4        11        18        19        19
         4        11        19        19        19
         4        19        19        19        23
         4        18        19        19        19
         4        19        19        19        21
         4        19        19        21        23
         4        11        13        18        19
         4        13        18        19        19
         8        13        19        19        21
        12        11        13        13        19
         4        13        13        15        19
         4        13        15        19        21
         4         6         7        11        13
         4         7        11        13        13
         8         7        13        13        15
         4         7         7         9        13
         4         7         9        13        15
         4         7         9        14        17
        12         7         9        14        15
         4         9        14        15        22
         4         7        13        15        20
         4         7        14        15        20
         4        15        20        21        24
         4        15        20        22        24
         4        13        19        21        21
         4        13        20        21        21
         4        20        21        21        24
         8        19        21        21        23
         8        21        21        23        24
         4        21        21        24        24
         4        19        19        20        23
        12        19        20        21        23
        12        20        21        23        24
         4        20        21        22        23
         4        20        22        23        24
         4        13        14        19        21
         4        14        19        20        21
         4        14        15        15        21
        16         7        13        14        15
         8         7        14        15        15
        16         7         7         9        15
         4         7         7        15        15
         4        14        20        22        22
         8        20        22        22        24
        16        22        22        24        25
        16        20        21        22        24
         8        21        22        24        24
         4        22        24        24        24
        16        22        24        24        25
         4        20        20        21        24
        12        20        22        24        24
         8        20        20        22        24
         4        20        21        24        24
         4        13        20        20        22
         8        13        20        21        22
         4        13        13        15        22
         4        13        13        21        22
         4         6         7        14        15
         4         6        13        14        15
         4         6        13        13        15
         4         6         7         7        15
         4         3         6         7        15
         4         3         6        13        15
         8        21        22        22        25
        12        21        22        24        25
         4        21        23        24        25
         4        19        20        22        24
         4        19        21        22        24
         8        19        21        23        24
         8        19        20        21        24
         4        19        19        21        24
         4        19        19        23        24
         4        11        13        20        21
         4        11        19        20        21
         4        11        19        19        21
         4        11        13        13        21
         4        10        11        13        21
         4        10        11        19        21
         4         2         6        13        13
         4         2        11        13        13
        12         2         3        10        13
         4         2        10        10        13
         4        18        19        21        23
         4        18        19        19        23
         4        11        18        19        23
         4         8        11        19        19
         4         8        18        19        19
         4         2         8        10        19
         4         2         8        11        19
        16         2         8        10        11
         4         8         8        10        11
        12         2         8         8        10
         8         2         8        10        10
         4         8        10        10        11
         4         1         8        11        18
         4         2         8         8         8
         8         2         2         8        10
         4         2         2         3        10
         4         3         4         7        17
         4         4         7        16        17
         4         7         7         7         9
         4         4         7         7        14
         4         7         7         7        14
        12         3         4        12        13
         4         4        12        13        20
         4         4        13        14        20
         4         3        10        12        19
         4         3        12        13        19
         4        12        13        19        21
         4        12        19        20        21
         4        10        13        19        19
         8        13        13        19        20
         4        10        11        13        13
         4        10        12        13        13
         4        12        13        13        14
         4        13        13        14        20
         4         3         7        10        12
         4         7        10        12        13
         8         7        12        13        14
         8         3         4         7        12
         4         7         7        12        14
         4         7         9        15        16
        12         7         9        15        15
         8         7         7        14        15
         4         7        14        15        22
         4         7        15        15        22
         4         7        13        14        21
         4         7        14        15        21
         4        14        20        21        24
         4        14        21        22        24
         4        13        19        20        23
         4        13        20        21        23
         4        20        23        24        24
         4        19        19        21        21
         4        19        20        21        21
         4        20        21        21        22
         4        21        21        22        24
         4        13        15        19        20
         4        15        19        20        21
         8        13        14        15        20
         4        14        15        15        20
         4        15        15        20        22
         4         7         9        13        14
         4         9        13        14        15
         8         9        14        15        15
         8         7         7         9        14
         4         9        15        15        22
         4        15        22        22        25
         4        15        21        22        24
         4        15        22        22        24
         8        22        24        24        26
         8        22        24        25        26
         4        21        23        24        24
         4        21        24        24        24
         8        24        24        24        26
         4        23        24        24        24
         4        24        24        24        25
        20        24        24        25        26
         4        21        22        23        24
         4        22        23        24        24
        12        21        22        22        24
         4        22        22        22        24
         4        15        15        21        22
         4        15        22        22        22
         4        15        15        15        22
         4        14        15        22        22
         4         7        15        15        15
         4         4         7         7        15
         4         4         7        14        15
         4        22        24        25        25
         8        24        25        25        26
         6        25        25        26        26
        12        24        25        26        26
         4        24        24        26        26
         8        21        24        24        25
         4        20        21        22        25
         4        20        21        24        25
         4        13        15        22        22
         4        13        21        22        22
         4        12        13        14        22
         4        12        13        20        22
         4         3         7        14        15
         4         3        13        14        15
         4        23        24        25        26
         4        23        24        24        26
         4        21        23        24        26
         4        19        21        24        24
         4        19        23        24        24
         4        13        19        20        24
         4        13        19        21        24
         4        10        13        20        21
         4        10        19        20        21
         4         3        10        12        20
         4         3        10        13        20
         8         3        10        12        13
         4        10        10        12        13
         8         3        10        10        12
         8         3        10        12        12
         4        10        12        12        13
         4        11        19        21        23
         4         6        11        13        21
         4         2        10        13        19
         4         2        11        13        19
         8         2         6        11        13
         4         2         6         6        13
         4         3        10        10        11
         4         3        11        13        13
         4         2         2         6        10
         4         6        10        12        13
         4         3         6        10        12
         4         2         3         3        10
         4         3         3        10        12
         4         3         3         4        12
         4         3         4         7        16
         4         6         7         7         7
         4         6         6         7        13
         8         3         7         7        14
         8         3         7        13        14
         4         3        12        14        20
         4         3        13        14        20
         4         4        12        12        20
         4         4        12        14        20
         4        12        14        20        22
         4        12        20        20        22
         4        12        13        14        21
         4        12        14        20        21
         4        14        21        22        22
         4        13        13        15        20
         4        14        15        20        20
         4        15        20        20        22
         4        12        13        14        14
         4        13        14        14        20
         2        14        14        20        20
         2        12        12        14        14
         8         4         7        12        12
         4         7        12        12        14
         4         3         6         7        12
         4         6         7        12        13
         4         6         7        15        16
         8         6         7        13        15
         4         6        13        15        21
         4         7        13        14        22
         4         7        13        15        22
         4        13        20        22        24
         4        13        21        22        24
         4        14        20        20        24
         4        14        20        22        24
         4        20        22        24        25
         4        20        24        24        25
         6        22        22        24        24
         4        20        21        22        22
         2        20        20        22        22
         4         7         7        13        14
         4         3         7        13        13
         4        15        21        22        25
         4        21        24        25        26
         4        24        26        26        26
         6        24        24        25        25
         4         4         7        13        15
         4         4        13        14        15
         8         4        12        12        13
         4        25        26        26        26
         2        26        26        26        26
         4         4        12        12        14
         4        12        12        12        14
         8         4        12        12        12
         4         3         4         4        12
         4         4         4        12        12
         4         1         5         8        11
         4         1         2         6        11
         4         2         8        10        13
         4         2         8        11        13
         4         2         3         7        13
         4         2         6         7        13
         4         3        10        12        14
         4         3        10        13        14
         4         3         4         6        13
         4         4         6         7        13
         4         3        10        11        12
         4         3        11        12        13
         4         2         2         3        11
         6         2         2         8         8
         6         1         1         8         8
         4         5         5         5         8
         4         6        11        13        15
         4         6         7         9        15
         4         7        13        15        15
         4         7         7         7        15
         4         7        13        13        14
         4         3         7         7        13
         4         6        10        13        13
         4         2         6        10        10
         4         3         6        10        10
         4         2         2        10        11
         2         2         2        10        10
         4         1         8         8        10
         4         1         2         8        10
         4         2         3         8        10
         4         3         8        10        10
         4         4         7         9        14
         4         7        12        13        15
         4         7        12        14        15
         4         3         7        12        12
         4         3         3        10        13
         4         3         3        12        13
         2         3         3        12        12
         2         3         3        10        10
         4         2        10        10        12
         4         2         3        10        12
         4         3         4        10        12
         4         4        10        12        12
         4         4         4        12        14
         4         3        12        12        12
         4         3         4        12        12
         4         1         5         5         5
         2         5         5         5         5
