       N       E                     dE             d eps       ncg     rms          rms(c)
DAV:   1     0.166158376367E+02    0.16616E+02   -0.36785E+03  1424   0.790E+02
DAV:   2    -0.917974344571E+01   -0.25796E+02   -0.23847E+02  1308   0.121E+02
DAV:   3    -0.978198581227E+01   -0.60224E+00   -0.60098E+00  1440   0.213E+01
DAV:   4    -0.978438635388E+01   -0.24005E-02   -0.23999E-02  1412   0.117E+00
DAV:   5    -0.978440242017E+01   -0.16066E-04   -0.16077E-04  1444   0.979E-02    0.145E+01
DAV:   6    -0.927542121500E+01    0.50898E+00   -0.87327E+00  1392   0.418E+01    0.448E+00
DAV:   7    -0.924505315927E+01    0.30368E-01   -0.33081E-01  1480   0.810E+00    0.269E+00
DAV:   8    -0.923197400466E+01    0.13079E-01   -0.45549E-03  1544   0.429E-01    0.123E+00
DAV:   9    -0.922233207896E+01    0.96419E-02   -0.67084E-03  1660   0.476E-01    0.212E-01
DAV:  10    -0.922243564637E+01   -0.10357E-03   -0.84148E-05  1480   0.134E-01    0.115E-01
DAV:  11    -0.922283396219E+01   -0.39832E-03   -0.12455E-04  1636   0.129E-01    0.358E-02
DAV:  12    -0.922300640265E+01   -0.17244E-03   -0.11630E-05  1352   0.299E-02    0.372E-02
DAV:  13    -0.922296085562E+01    0.45547E-04   -0.17955E-06   736   0.146E-02    0.146E-02
DAV:  14    -0.922291529403E+01    0.45562E-04   -0.10163E-06   688   0.759E-03    0.180E-03
DAV:  15    -0.922290319671E+01    0.12097E-04   -0.93328E-08   648   0.297E-03    0.108E-03
DAV:  16    -0.922290138372E+01    0.18130E-05   -0.12478E-08   656   0.879E-04    0.331E-04
DAV:  17    -0.922290085951E+01    0.52421E-06   -0.11688E-09   656   0.335E-04
   1 F= -.92229009E+01 E0= -.92229009E+01  d E =0.000000E+00  mag=     1.9994
