PROCAR lm decomposed
# of k-points:   26         # of bands:  12         # of ions:   1

 k-point    1 :    0.06250000 0.06250000 0.06250000     weight = 0.01562500

band   1 # energy   -1.44079879 # occ.  1.00000000
 
ion      s     py     pz     px    dxy    dyz    dz2    dxz    dx2    tot
  1  0.723  0.024  0.024  0.024  0.003  0.003  0.000  0.003  0.000  0.804
 
band   2 # energy    3.86187211 # occ.  1.00000000
 
ion      s     py     pz     px    dxy    dyz    dz2    dxz    dx2    tot
  1  0.000  0.000  0.002  0.001  0.632  0.198  0.023  0.123  0.000  0.980
 
band   3 # energy    3.86187211 # occ.  1.00000000
 
ion      s     py     pz     px    dxy    dyz    dz2    dxz    dx2    tot
  1  0.000  0.002  0.000  0.002  0.004  0.438  0.000  0.512  0.023  0.980
 
band   4 # energy    4.78598046 # occ.  1.00000000
 
ion      s     py     pz     px    dxy    dyz    dz2    dxz    dx2    tot
  1  0.002  0.004  0.004  0.004  0.323  0.323  0.000  0.323  0.000  0.983
 
band   5 # energy    5.54717793 # occ.  1.00000000
 
ion      s     py     pz     px    dxy    dyz    dz2    dxz    dx2    tot
  1  0.000  0.000  0.000  0.000  0.002  0.008  0.092  0.016  0.852  0.970
 
band   6 # energy    5.54717793 # occ.  1.00288093
 
ion      s     py     pz     px    dxy    dyz    dz2    dxz    dx2    tot
  1  0.000  0.000  0.000  0.000  0.016  0.009  0.852  0.001  0.092  0.970
 
band   7 # energy   28.69270785 # occ.  0.00000000
 
ion      s     py     pz     px    dxy    dyz    dz2    dxz    dx2    tot
  1  0.000  0.008  0.030  0.061  0.088  0.183  0.098  0.024  0.120  0.612
 
band   8 # energy   28.69270785 # occ.  0.00000000
 
ion      s     py     pz     px    dxy    dyz    dz2    dxz    dx2    tot
  1  0.000  0.058  0.036  0.004  0.109  0.013  0.120  0.173  0.098  0.612
 
band   9 # energy   33.09378391 # occ.  0.00000000
 
ion      s     py     pz     px    dxy    dyz    dz2    dxz    dx2    tot
  1  0.000  0.000  0.000  0.000  0.000  0.000  0.000  0.000  0.000  0.000
 
band  10 # energy   33.42102820 # occ.  0.00000000
 
ion      s     py     pz     px    dxy    dyz    dz2    dxz    dx2    tot
  1  0.076  0.166  0.166  0.166  0.184  0.184  0.000  0.184  0.000  1.128
 
band  11 # energy   38.85022242 # occ.  0.00000000
 
ion      s     py     pz     px    dxy    dyz    dz2    dxz    dx2    tot
  1  0.000  0.047  0.159  0.047  0.099  0.029  0.092  0.029  0.006  0.508
 
band  12 # energy   38.85022242 # occ.  0.00000000
 
ion      s     py     pz     px    dxy    dyz    dz2    dxz    dx2    tot
  1  0.000  0.121  0.010  0.122  0.006  0.076  0.006  0.076  0.092  0.508
 

 k-point    2 :    0.18750000 0.06250000 0.06250000     weight = 0.04687500

band   1 # energy    0.23263908 # occ.  1.00000000
 
ion      s     py     pz     px    dxy    dyz    dz2    dxz    dx2    tot
  1  0.552  0.072  0.072  0.021  0.007  0.072  0.004  0.007  0.012  0.819
 
band   2 # energy    3.38654531 # occ.  1.00000000
 
ion      s     py     pz     px    dxy    dyz    dz2    dxz    dx2    tot
  1  0.000  0.003  0.003  0.000  0.472  0.000  0.018  0.472  0.006  0.973
 
band   3 # energy    3.62827947 # occ.  1.00000000
 
ion      s     py     pz     px    dxy    dyz    dz2    dxz    dx2    tot
  1  0.014  0.023  0.023  0.003  0.092  0.557  0.036  0.092  0.109  0.950
 
band   4 # energy    5.46465402 # occ.  1.00000000
 
ion      s     py     pz     px    dxy    dyz    dz2    dxz    dx2    tot
  1  0.002  0.000  0.000  0.000  0.016  0.146  0.199  0.016  0.596  0.974
 
band   5 # energy    5.69426768 # occ.  1.00175593
 
ion      s     py     pz     px    dxy    dyz    dz2    dxz    dx2    tot
  1  0.000  0.000  0.000  0.000  0.014  0.000  0.712  0.014  0.237  0.976
 
band   6 # energy    5.95018992 # occ.  0.86186428
 
ion      s     py     pz     px    dxy    dyz    dz2    dxz    dx2    tot
  1  0.014  0.014  0.014  0.013  0.371  0.179  0.000  0.371  0.000  0.975
 
band   7 # energy   23.30037748 # occ.  0.00000000
 
ion      s     py     pz     px    dxy    dyz    dz2    dxz    dx2    tot
  1  0.056  0.112  0.112  0.027  0.010  0.348  0.044  0.010  0.131  0.851
 
band   8 # energy   26.33295237 # occ.  0.00000000
 
ion      s     py     pz     px    dxy    dyz    dz2    dxz    dx2    tot
  1  0.000  0.101  0.101  0.000  0.171  0.000  0.094  0.171  0.031  0.670
 
band   9 # energy   29.28592869 # occ.  0.00000000
 
ion      s     py     pz     px    dxy    dyz    dz2    dxz    dx2    tot
  1  0.130  0.062  0.062  0.385  0.129  0.005  0.011  0.129  0.032  0.945
 
band  10 # energy   33.61457682 # occ.  0.00000000
 
ion      s     py     pz     px    dxy    dyz    dz2    dxz    dx2    tot
  1  0.000  0.002  0.002  0.000  0.194  0.000  0.019  0.194  0.006  0.417
 
band  11 # energy   38.45239095 # occ.  0.00000000
 
ion      s     py     pz     px    dxy    dyz    dz2    dxz    dx2    tot
  1  0.034  0.053  0.053  0.147  0.081  0.130  0.123  0.081  0.368  1.070
 
band  12 # energy   39.45004209 # occ.  0.00000000
 
ion      s     py     pz     px    dxy    dyz    dz2    dxz    dx2    tot
  1  0.000  0.097  0.097  0.000  0.178  0.000  0.002  0.178  0.001  0.552
 

 k-point    3 :    0.31250000 0.06250000 0.06250000     weight = 0.04687500

band   1 # energy    1.37909800 # occ.  1.00000000
 
ion      s     py     pz     px    dxy    dyz    dz2    dxz    dx2    tot
  1  0.229  0.027  0.027  0.020  0.001  0.412  0.043  0.001  0.128  0.887
 
band   2 # energy    2.98146554 # occ.  1.00000000
 
ion      s     py     pz     px    dxy    dyz    dz2    dxz    dx2    tot
  1  0.000  0.004  0.004  0.000  0.477  0.000  0.006  0.477  0.002  0.970
 
band   3 # energy    4.46021770 # occ.  1.00000000
 
ion      s     py     pz     px    dxy    dyz    dz2    dxz    dx2    tot
  1  0.086  0.145  0.145  0.000  0.149  0.099  0.027  0.149  0.082  0.883
 
band   4 # energy    5.62200597 # occ.  1.00000000
 
ion      s     py     pz     px    dxy    dyz    dz2    dxz    dx2    tot
  1  0.003  0.002  0.002  0.001  0.014  0.283  0.166  0.014  0.498  0.982
 
band   5 # energy    5.81356776 # occ.  1.03378407
 
ion      s     py     pz     px    dxy    dyz    dz2    dxz    dx2    tot
  1  0.000  0.000  0.000  0.000  0.004  0.000  0.730  0.004  0.243  0.983
 
band   6 # energy    7.51378806 # occ. -0.00712623
 
ion      s     py     pz     px    dxy    dyz    dz2    dxz    dx2    tot
  1  0.044  0.064  0.064  0.011  0.330  0.104  0.001  0.330  0.002  0.950
 
band   7 # energy   17.76445593 # occ.  0.00000000
 
ion      s     py     pz     px    dxy    dyz    dz2    dxz    dx2    tot
  1  0.225  0.106  0.106  0.015  0.005  0.347  0.027  0.005  0.081  0.916
 
band   8 # energy   24.54137670 # occ.  0.00000000
 
ion      s     py     pz     px    dxy    dyz    dz2    dxz    dx2    tot
  1  0.000  0.132  0.132  0.000  0.155  0.000  0.027  0.155  0.009  0.609
 
band   9 # energy   26.75362346 # occ.  0.00000000
 
ion      s     py     pz     px    dxy    dyz    dz2    dxz    dx2    tot
  1  0.130  0.011  0.011  0.544  0.044  0.011  0.014  0.044  0.042  0.850
 
band  10 # energy   33.24854089 # occ.  0.00000000
 
ion      s     py     pz     px    dxy    dyz    dz2    dxz    dx2    tot
  1  0.000  0.004  0.004  0.000  0.431  0.000  0.007  0.431  0.002  0.880
 
band  11 # energy   37.76100713 # occ.  0.00000000
 
ion      s     py     pz     px    dxy    dyz    dz2    dxz    dx2    tot
  1  0.104  0.023  0.023  0.123  0.021  0.004  0.182  0.021  0.545  1.044
 
band  12 # energy   42.84073701 # occ.  0.00000000
 
ion      s     py     pz     px    dxy    dyz    dz2    dxz    dx2    tot
  1  0.054  0.007  0.012  0.010  0.004  0.314  0.000  0.007  0.004  0.411
 

 k-point    4 :    0.43750000 0.06250000 0.06250000     weight = 0.02343750

band   1 # energy    1.41522604 # occ.  1.00000000
 
ion      s     py     pz     px    dxy    dyz    dz2    dxz    dx2    tot
  1  0.133  0.000  0.000  0.018  0.000  0.507  0.063  0.000  0.190  0.911
 
band   2 # energy    2.82650740 # occ.  1.00000000
 
ion      s     py     pz     px    dxy    dyz    dz2    dxz    dx2    tot
  1  0.000  0.005  0.005  0.000  0.480  0.000  0.000  0.480  0.000  0.970
 
band   3 # energy    5.55711211 # occ.  1.00000000
 
ion      s     py     pz     px    dxy    dyz    dz2    dxz    dx2    tot
  1  0.000  0.180  0.180  0.000  0.266  0.000  0.000  0.266  0.000  0.892
 
band   4 # energy    5.69971028 # occ.  1.00000000
 
ion      s     py     pz     px    dxy    dyz    dz2    dxz    dx2    tot
  1  0.012  0.000  0.000  0.001  0.000  0.290  0.170  0.000  0.511  0.984
 
band   5 # energy    5.86318347 # occ.  1.06855696
 
ion      s     py     pz     px    dxy    dyz    dz2    dxz    dx2    tot
  1  0.000  0.000  0.000  0.000  0.000  0.000  0.740  0.000  0.247  0.986
 
band   6 # energy    8.86598044 # occ. -0.00459678
 
ion      s     py     pz     px    dxy    dyz    dz2    dxz    dx2    tot
  1  0.000  0.203  0.203  0.000  0.240  0.000  0.000  0.240  0.000  0.886
 
band   7 # energy   14.66500251 # occ.  0.00000000
 
ion      s     py     pz     px    dxy    dyz    dz2    dxz    dx2    tot
  1  0.424  0.000  0.000  0.019  0.000  0.416  0.025  0.000  0.074  0.958
 
band   8 # energy   23.87244834 # occ.  0.00000000
 
ion      s     py     pz     px    dxy    dyz    dz2    dxz    dx2    tot
  1  0.000  0.142  0.142  0.000  0.147  0.000  0.000  0.147  0.000  0.577
 
band   9 # energy   25.80322187 # occ.  0.00000000
 
ion      s     py     pz     px    dxy    dyz    dz2    dxz    dx2    tot
  1  0.127  0.000  0.000  0.605  0.000  0.023  0.013  0.000  0.040  0.807
 
band  10 # energy   33.06127722 # occ.  0.00000000
 
ion      s     py     pz     px    dxy    dyz    dz2    dxz    dx2    tot
  1  0.000  0.005  0.005  0.000  0.505  0.000  0.000  0.505  0.000  1.018
 
band  11 # energy   37.69583297 # occ.  0.00000000
 
ion      s     py     pz     px    dxy    dyz    dz2    dxz    dx2    tot
  1  0.147  0.000  0.000  0.115  0.000  0.006  0.209  0.000  0.626  1.104
 
band  12 # energy   42.58083172 # occ.  0.00000000
 
ion      s     py     pz     px    dxy    dyz    dz2    dxz    dx2    tot
  1  0.000  0.036  0.036  0.000  0.008  0.000  0.000  0.008  0.000  0.088
 

 k-point    5 :   -0.06250000 0.06250000 0.06250000     weight = 0.01171875

band   1 # energy   -2.09572012 # occ.  1.00000000
 
ion      s     py     pz     px    dxy    dyz    dz2    dxz    dx2    tot
  1  0.775  0.000  0.000  0.026  0.000  0.000  0.000  0.000  0.001  0.802
 
band   2 # energy    4.09845611 # occ.  1.00000000
 
ion      s     py     pz     px    dxy    dyz    dz2    dxz    dx2    tot
  1  0.000  0.001  0.001  0.000  0.492  0.000  0.000  0.492  0.000  0.986
 
band   3 # energy    4.09845627 # occ.  1.00000000
 
ion      s     py     pz     px    dxy    dyz    dz2    dxz    dx2    tot
  1  0.000  0.001  0.001  0.000  0.492  0.000  0.000  0.492  0.000  0.986
 
band   4 # energy    4.20043024 # occ.  1.00000000
 
ion      s     py     pz     px    dxy    dyz    dz2    dxz    dx2    tot
  1  0.000  0.000  0.000  0.000  0.000  0.987  0.000  0.000  0.000  0.987
 
band   5 # energy    5.45866829 # occ.  1.00000000
 
ion      s     py     pz     px    dxy    dyz    dz2    dxz    dx2    tot
  1  0.000  0.000  0.000  0.000  0.000  0.000  0.724  0.000  0.241  0.965
 
band   6 # energy    5.69546494 # occ.  1.00000000
 
ion      s     py     pz     px    dxy    dyz    dz2    dxz    dx2    tot
  1  0.000  0.000  0.000  0.000  0.000  0.000  0.243  0.000  0.730  0.974
 
band   7 # energy   30.48389404 # occ.  0.00000000
 
ion      s     py     pz     px    dxy    dyz    dz2    dxz    dx2    tot
  1  0.000  0.000  0.000  0.000  0.000  0.000  0.215  0.000  0.072  0.287
 
band   8 # energy   31.90083263 # occ.  0.00000000
 
ion      s     py     pz     px    dxy    dyz    dz2    dxz    dx2    tot
  1  0.000  0.009  0.009  0.000  0.127  0.000  0.000  0.127  0.000  0.272
 
band   9 # energy   31.90083263 # occ.  0.00000000
 
ion      s     py     pz     px    dxy    dyz    dz2    dxz    dx2    tot
  1  0.000  0.009  0.009  0.000  0.127  0.000  0.000  0.127  0.000  0.272
 
band  10 # energy   35.63726499 # occ.  0.00000000
 
ion      s     py     pz     px    dxy    dyz    dz2    dxz    dx2    tot
  1  0.016  0.000  0.000  0.264  0.000  0.000  0.097  0.000  0.290  0.667
 
band  11 # energy   38.14189245 # occ.  0.00000000
 
ion      s     py     pz     px    dxy    dyz    dz2    dxz    dx2    tot
  1  0.000  0.201  0.226  0.000  0.332  0.000  0.000  0.374  0.000  1.132
 
band  12 # energy   38.14189249 # occ.  0.00000000
 
ion      s     py     pz     px    dxy    dyz    dz2    dxz    dx2    tot
  1  0.000  0.226  0.201  0.000  0.374  0.000  0.000  0.332  0.000  1.132
 

 k-point    6 :    0.18750000 0.18750000 0.06250000     weight = 0.04687500

band   1 # energy    1.77510079 # occ.  1.00000000
 
ion      s     py     pz     px    dxy    dyz    dz2    dxz    dx2    tot
  1  0.310  0.051  0.079  0.051  0.000  0.161  0.045  0.161  0.000  0.861
 
band   2 # energy    3.06435736 # occ.  1.00000000
 
ion      s     py     pz     px    dxy    dyz    dz2    dxz    dx2    tot
  1  0.000  0.025  0.000  0.025  0.000  0.353  0.000  0.353  0.190  0.945
 
band   3 # energy    3.28621532 # occ.  1.00000000
 
ion      s     py     pz     px    dxy    dyz    dz2    dxz    dx2    tot
  1  0.034  0.005  0.077  0.005  0.664  0.077  0.007  0.077  0.000  0.945
 
band   4 # energy    5.55792151 # occ.  1.00000000
 
ion      s     py     pz     px    dxy    dyz    dz2    dxz    dx2    tot
  1  0.000  0.001  0.000  0.001  0.000  0.107  0.000  0.107  0.762  0.978
 
band   5 # energy    5.84611043 # occ.  1.00132138
 
ion      s     py     pz     px    dxy    dyz    dz2    dxz    dx2    tot
  1  0.005  0.000  0.001  0.000  0.000  0.034  0.910  0.034  0.000  0.984
 
band   6 # energy    7.75343841 # occ. -0.02572911
 
ion      s     py     pz     px    dxy    dyz    dz2    dxz    dx2    tot
  1  0.064  0.033  0.062  0.033  0.309  0.216  0.019  0.216  0.000  0.953
 
band   7 # energy   20.68007079 # occ.  0.00000000
 
ion      s     py     pz     px    dxy    dyz    dz2    dxz    dx2    tot
  1  0.000  0.167  0.000  0.167  0.000  0.193  0.000  0.193  0.153  0.874
 
band   8 # energy   21.62468177 # occ.  0.00000000
 
ion      s     py     pz     px    dxy    dyz    dz2    dxz    dx2    tot
  1  0.197  0.010  0.261  0.010  0.093  0.114  0.023  0.114  0.000  0.823
 
band   9 # energy   25.75176987 # occ.  0.00000000
 
ion      s     py     pz     px    dxy    dyz    dz2    dxz    dx2    tot
  1  0.162  0.211  0.004  0.211  0.187  0.004  0.032  0.004  0.000  0.815
 
band  10 # energy   35.64785502 # occ.  0.00000000
 
ion      s     py     pz     px    dxy    dyz    dz2    dxz    dx2    tot
  1  0.000  0.012  0.000  0.012  0.000  0.105  0.000  0.105  0.142  0.376
 
band  11 # energy   39.76291120 # occ.  0.00000000
 
ion      s     py     pz     px    dxy    dyz    dz2    dxz    dx2    tot
  1  0.019  0.020  0.026  0.020  0.459  0.185  0.014  0.185  0.000  0.928
 
band  12 # energy   42.28781927 # occ.  0.00000000
 
ion      s     py     pz     px    dxy    dyz    dz2    dxz    dx2    tot
  1  0.000  0.084  0.000  0.084  0.000  0.056  0.000  0.056  0.462  0.742
 

 k-point    7 :    0.31250000 0.18750000 0.06250000     weight = 0.09375000

band   1 # energy    2.11425213 # occ.  1.00000000
 
ion      s     py     pz     px    dxy    dyz    dz2    dxz    dx2    tot
  1  0.095  0.002  0.007  0.054  0.033  0.538  0.055  0.041  0.096  0.921
 
band   2 # energy    2.86932645 # occ.  1.00000000
 
ion      s     py     pz     px    dxy    dyz    dz2    dxz    dx2    tot
  1  0.000  0.026  0.012  0.014  0.328  0.025  0.001  0.480  0.068  0.953
 
band   3 # energy    3.99498463 # occ.  1.00000000
 
ion      s     py     pz     px    dxy    dyz    dz2    dxz    dx2    tot
  1  0.022  0.101  0.141  0.001  0.365  0.010  0.069  0.143  0.054  0.907
 
band   4 # energy    5.71990085 # occ.  1.00000000
 
ion      s     py     pz     px    dxy    dyz    dz2    dxz    dx2    tot
  1  0.003  0.001  0.000  0.002  0.000  0.208  0.049  0.045  0.675  0.983
 
band   5 # energy    5.94895751 # occ.  1.01076900
 
ion      s     py     pz     px    dxy    dyz    dz2    dxz    dx2    tot
  1  0.004  0.004  0.005  0.000  0.048  0.014  0.784  0.072  0.055  0.986
 
band   6 # energy   10.31100375 # occ. -0.00284206
 
ion      s     py     pz     px    dxy    dyz    dz2    dxz    dx2    tot
  1  0.066  0.125  0.185  0.020  0.210  0.079  0.033  0.186  0.000  0.905
 
band   7 # energy   16.00818380 # occ.  0.00000000
 
ion      s     py     pz     px    dxy    dyz    dz2    dxz    dx2    tot
  1  0.244  0.118  0.026  0.079  0.013  0.328  0.006  0.021  0.073  0.908
 
band   8 # energy   19.94594927 # occ.  0.00000000
 
ion      s     py     pz     px    dxy    dyz    dz2    dxz    dx2    tot
  1  0.180  0.054  0.111  0.144  0.108  0.001  0.000  0.193  0.031  0.821
 
band   9 # energy   24.35411390 # occ.  0.00000000
 
ion      s     py     pz     px    dxy    dyz    dz2    dxz    dx2    tot
  1  0.148  0.111  0.051  0.259  0.119  0.043  0.010  0.043  0.004  0.788
 
band  10 # energy   36.12666885 # occ.  0.00000000
 
ion      s     py     pz     px    dxy    dyz    dz2    dxz    dx2    tot
  1  0.007  0.001  0.001  0.024  0.160  0.010  0.013  0.251  0.154  0.622
 
band  11 # energy   40.69167428 # occ.  0.00000000
 
ion      s     py     pz     px    dxy    dyz    dz2    dxz    dx2    tot
  1  0.004  0.057  0.002  0.000  0.181  0.069  0.110  0.009  0.113  0.543
 
band  12 # energy   43.03707465 # occ.  0.00000000
 
ion      s     py     pz     px    dxy    dyz    dz2    dxz    dx2    tot
  1  0.050  0.008  0.005  0.122  0.077  0.002  0.273  0.036  0.372  0.944
 

 k-point    8 :   -0.18750000 0.18750000 0.06250000     weight = 0.04687500

band   1 # energy   -0.83350100 # occ.  1.00000000
 
ion      s     py     pz     px    dxy    dyz    dz2    dxz    dx2    tot
  1  0.666  0.021  0.000  0.093  0.015  0.000  0.006  0.000  0.005  0.807
 
band   2 # energy    3.78656750 # occ.  1.00000000
 
ion      s     py     pz     px    dxy    dyz    dz2    dxz    dx2    tot
  1  0.000  0.000  0.003  0.000  0.000  0.379  0.000  0.598  0.000  0.980
 
band   3 # energy    4.01073979 # occ.  1.00000000
 
ion      s     py     pz     px    dxy    dyz    dz2    dxz    dx2    tot
  1  0.005  0.016  0.000  0.009  0.826  0.000  0.100  0.000  0.010  0.966
 
band   4 # energy    4.90733736 # occ.  1.00000000
 
ion      s     py     pz     px    dxy    dyz    dz2    dxz    dx2    tot
  1  0.000  0.000  0.008  0.000  0.000  0.602  0.000  0.372  0.000  0.982
 
band   5 # energy    5.16606965 # occ.  1.00000000
 
ion      s     py     pz     px    dxy    dyz    dz2    dxz    dx2    tot
  1  0.000  0.000  0.000  0.000  0.118  0.000  0.662  0.000  0.180  0.960
 
band   6 # energy    5.81195429 # occ.  1.00730707
 
ion      s     py     pz     px    dxy    dyz    dz2    dxz    dx2    tot
  1  0.006  0.000  0.000  0.001  0.005  0.000  0.187  0.000  0.779  0.978
 
band   7 # energy   26.18756543 # occ.  0.00000000
 
ion      s     py     pz     px    dxy    dyz    dz2    dxz    dx2    tot
  1  0.023  0.115  0.000  0.050  0.308  0.000  0.254  0.000  0.021  0.771
 
band   8 # energy   29.54786451 # occ.  0.00000000
 
ion      s     py     pz     px    dxy    dyz    dz2    dxz    dx2    tot
  1  0.023  0.000  0.000  0.132  0.073  0.000  0.042  0.000  0.167  0.438
 
band   9 # energy   30.65154053 # occ.  0.00000000
 
ion      s     py     pz     px    dxy    dyz    dz2    dxz    dx2    tot
  1  0.000  0.000  0.167  0.000  0.000  0.038  0.000  0.669  0.000  0.874
 
band  10 # energy   34.99120457 # occ.  0.00000000
 
ion      s     py     pz     px    dxy    dyz    dz2    dxz    dx2    tot
  1  0.003  0.220  0.000  0.087  0.274  0.000  0.113  0.000  0.005  0.701
 
band  11 # energy   35.25876528 # occ.  0.00000000
 
ion      s     py     pz     px    dxy    dyz    dz2    dxz    dx2    tot
  1  0.000  0.000  0.380  0.000  0.000  0.536  0.000  0.029  0.000  0.944
 
band  12 # energy   36.85102955 # occ.  0.00000000
 
ion      s     py     pz     px    dxy    dyz    dz2    dxz    dx2    tot
  1  0.094  0.158  0.000  0.116  0.014  0.000  0.130  0.000  0.005  0.517
 

 k-point    9 :    0.31250000 0.31250000 0.06250000     weight = 0.01562500

band   1 # energy    2.46150274 # occ.  1.00000000
 
ion      s     py     pz     px    dxy    dyz    dz2    dxz    dx2    tot
  1  0.044  0.008  0.008  0.008  0.294  0.294  0.000  0.294  0.000  0.951
 
band   2 # energy    3.27922025 # occ.  1.00000000
 
ion      s     py     pz     px    dxy    dyz    dz2    dxz    dx2    tot
  1  0.000  0.028  0.113  0.028  0.365  0.091  0.203  0.091  0.000  0.920
 
band   3 # energy    3.27922036 # occ.  1.00000000
 
ion      s     py     pz     px    dxy    dyz    dz2    dxz    dx2    tot
  1  0.000  0.085  0.000  0.085  0.000  0.274  0.000  0.274  0.203  0.920
 
band   4 # energy    5.88146542 # occ.  1.00000000
 
ion      s     py     pz     px    dxy    dyz    dz2    dxz    dx2    tot
  1  0.000  0.001  0.005  0.001  0.155  0.039  0.746  0.039  0.000  0.985
 
band   5 # energy    5.88146547 # occ.  1.00372151
 
ion      s     py     pz     px    dxy    dyz    dz2    dxz    dx2    tot
  1  0.000  0.004  0.000  0.004  0.000  0.116  0.000  0.116  0.746  0.985
 
band   6 # energy   13.97113364 # occ.  0.00000000
 
ion      s     py     pz     px    dxy    dyz    dz2    dxz    dx2    tot
  1  0.000  0.076  0.303  0.076  0.244  0.061  0.068  0.061  0.000  0.888
 
band   7 # energy   13.97113369 # occ.  0.00000000
 
ion      s     py     pz     px    dxy    dyz    dz2    dxz    dx2    tot
  1  0.000  0.227  0.000  0.227  0.000  0.183  0.000  0.183  0.068  0.888
 
band   8 # energy   16.78926412 # occ.  0.00000000
 
ion      s     py     pz     px    dxy    dyz    dz2    dxz    dx2    tot
  1  0.586  0.002  0.002  0.002  0.091  0.091  0.000  0.091  0.000  0.866
 
band   9 # energy   23.86164965 # occ.  0.00000000
 
ion      s     py     pz     px    dxy    dyz    dz2    dxz    dx2    tot
  1  0.145  0.132  0.132  0.132  0.090  0.090  0.000  0.090  0.000  0.813
 
band  10 # energy   38.65585906 # occ.  0.00000000
 
ion      s     py     pz     px    dxy    dyz    dz2    dxz    dx2    tot
  1  0.000  0.008  0.032  0.008  0.078  0.019  0.312  0.020  0.000  0.476
 
band  11 # energy   38.65585906 # occ.  0.00000000
 
ion      s     py     pz     px    dxy    dyz    dz2    dxz    dx2    tot
  1  0.000  0.024  0.000  0.024  0.000  0.059  0.000  0.058  0.312  0.476
 
band  12 # energy   46.52606063 # occ.  0.00000000
 
ion      s     py     pz     px    dxy    dyz    dz2    dxz    dx2    tot
  1  0.019  0.048  0.048  0.048  0.411  0.411  0.000  0.411  0.000  1.398
 

 k-point   10 :   -0.31250000 0.31250000 0.06250000     weight = 0.04687500

band   1 # energy    0.85400086 # occ.  1.00000000
 
ion      s     py     pz     px    dxy    dyz    dz2    dxz    dx2    tot
  1  0.397  0.031  0.000  0.104  0.209  0.000  0.096  0.000  0.010  0.847
 
band   2 # energy    3.32618039 # occ.  1.00000000
 
ion      s     py     pz     px    dxy    dyz    dz2    dxz    dx2    tot
  1  0.000  0.000  0.003  0.000  0.000  0.440  0.000  0.532  0.000  0.975
 
band   3 # energy    4.06614855 # occ.  1.00000000
 
ion      s     py     pz     px    dxy    dyz    dz2    dxz    dx2    tot
  1  0.065  0.079  0.000  0.087  0.286  0.000  0.254  0.000  0.129  0.901
 
band   4 # energy    5.37825900 # occ.  1.00000000
 
ion      s     py     pz     px    dxy    dyz    dz2    dxz    dx2    tot
  1  0.001  0.011  0.000  0.011  0.429  0.000  0.489  0.000  0.032  0.973
 
band   5 # energy    6.00770771 # occ.  1.01427545
 
ion      s     py     pz     px    dxy    dyz    dz2    dxz    dx2    tot
  1  0.032  0.009  0.000  0.018  0.002  0.000  0.105  0.000  0.808  0.974
 
band   6 # energy    6.07334744 # occ.  0.67163939
 
ion      s     py     pz     px    dxy    dyz    dz2    dxz    dx2    tot
  1  0.000  0.000  0.011  0.000  0.000  0.538  0.000  0.433  0.000  0.982
 
band   7 # energy   20.38069620 # occ.  0.00000000
 
ion      s     py     pz     px    dxy    dyz    dz2    dxz    dx2    tot
  1  0.140  0.172  0.000  0.091  0.348  0.000  0.146  0.000  0.008  0.905
 
band   8 # energy   27.02109971 # occ.  0.00000000
 
ion      s     py     pz     px    dxy    dyz    dz2    dxz    dx2    tot
  1  0.026  0.055  0.000  0.142  0.006  0.000  0.076  0.000  0.082  0.386
 
band   9 # energy   28.63793172 # occ.  0.00000000
 
ion      s     py     pz     px    dxy    dyz    dz2    dxz    dx2    tot
  1  0.000  0.000  0.453  0.000  0.000  0.023  0.000  0.538  0.000  1.014
 
band  10 # energy   33.20481118 # occ.  0.00000000
 
ion      s     py     pz     px    dxy    dyz    dz2    dxz    dx2    tot
  1  0.000  0.000  0.216  0.000  0.000  0.686  0.000  0.159  0.000  1.061
 
band  11 # energy   35.30293880 # occ.  0.00000000
 
ion      s     py     pz     px    dxy    dyz    dz2    dxz    dx2    tot
  1  0.076  0.235  0.000  0.000  0.040  0.000  0.520  0.000  0.007  0.878
 
band  12 # energy   38.18836078 # occ.  0.00000000
 
ion      s     py     pz     px    dxy    dyz    dz2    dxz    dx2    tot
  1  0.122  0.011  0.000  0.067  0.191  0.000  0.058  0.000  0.118  0.567
 

 k-point   11 :   -0.18750000 0.31250000 0.06250000     weight = 0.04687500

band   1 # energy    0.68368827 # occ.  1.00000000
 
ion      s     py     pz     px    dxy    dyz    dz2    dxz    dx2    tot
  1  0.483  0.015  0.015  0.160  0.042  0.000  0.017  0.042  0.051  0.823
 
band   2 # energy    3.54643344 # occ.  1.00000000
 
ion      s     py     pz     px    dxy    dyz    dz2    dxz    dx2    tot
  1  0.000  0.013  0.013  0.000  0.292  0.000  0.250  0.292  0.083  0.944
 
band   3 # energy    3.76636240 # occ.  1.00000000
 
ion      s     py     pz     px    dxy    dyz    dz2    dxz    dx2    tot
  1  0.011  0.005  0.005  0.025  0.223  0.472  0.000  0.223  0.000  0.966
 
band   4 # energy    5.00130115 # occ.  1.00000000
 
ion      s     py     pz     px    dxy    dyz    dz2    dxz    dx2    tot
  1  0.000  0.002  0.002  0.000  0.180  0.000  0.450  0.180  0.150  0.964
 
band   5 # energy    5.78018741 # occ.  1.00388543
 
ion      s     py     pz     px    dxy    dyz    dz2    dxz    dx2    tot
  1  0.000  0.005  0.005  0.003  0.180  0.391  0.054  0.180  0.162  0.981
 
band   6 # energy    6.20899904 # occ.  0.69940320
 
ion      s     py     pz     px    dxy    dyz    dz2    dxz    dx2    tot
  1  0.049  0.006  0.006  0.025  0.033  0.115  0.176  0.033  0.529  0.972
 
band   7 # energy   23.33933566 # occ.  0.00000000
 
ion      s     py     pz     px    dxy    dyz    dz2    dxz    dx2    tot
  1  0.000  0.125  0.125  0.000  0.154  0.000  0.235  0.154  0.078  0.870
 
band   8 # energy   24.49041653 # occ.  0.00000000
 
ion      s     py     pz     px    dxy    dyz    dz2    dxz    dx2    tot
  1  0.141  0.062  0.062  0.179  0.173  0.022  0.002  0.173  0.006  0.819
 
band   9 # energy   30.99417994 # occ.  0.00000000
 
ion      s     py     pz     px    dxy    dyz    dz2    dxz    dx2    tot
  1  0.000  0.056  0.056  0.000  0.169  0.000  0.204  0.169  0.068  0.723
 
band  10 # energy   31.54928037 # occ.  0.00000000
 
ion      s     py     pz     px    dxy    dyz    dz2    dxz    dx2    tot
  1  0.002  0.230  0.230  0.052  0.028  0.099  0.004  0.028  0.012  0.685
 
band  11 # energy   35.40550927 # occ.  0.00000000
 
ion      s     py     pz     px    dxy    dyz    dz2    dxz    dx2    tot
  1  0.100  0.003  0.003  0.060  0.133  0.409  0.015  0.133  0.044  0.899
 
band  12 # energy   40.19971661 # occ.  0.00000000
 
ion      s     py     pz     px    dxy    dyz    dz2    dxz    dx2    tot
  1  0.000  0.150  0.150  0.000  0.001  0.000  0.128  0.001  0.043  0.472
 

 k-point   12 :   -0.43750000 0.43750000 0.06250000     weight = 0.04687500

band   1 # energy    1.28561890 # occ.  1.00000000
 
ion      s     py     pz     px    dxy    dyz    dz2    dxz    dx2    tot
  1  0.161  0.000  0.000  0.019  0.445  0.000  0.276  0.000  0.001  0.902
 
band   2 # energy    3.01560371 # occ.  1.00000000
 
ion      s     py     pz     px    dxy    dyz    dz2    dxz    dx2    tot
  1  0.000  0.000  0.003  0.000  0.000  0.471  0.000  0.498  0.000  0.973
 
band   3 # energy    4.97876867 # occ.  1.00000000
 
ion      s     py     pz     px    dxy    dyz    dz2    dxz    dx2    tot
  1  0.021  0.093  0.000  0.101  0.000  0.000  0.093  0.000  0.603  0.911
 
band   4 # energy    5.58773581 # occ.  1.00000000
 
ion      s     py     pz     px    dxy    dyz    dz2    dxz    dx2    tot
  1  0.008  0.007  0.000  0.006  0.342  0.000  0.554  0.000  0.061  0.979
 
band   5 # energy    7.01820528 # occ.  0.27123757
 
ion      s     py     pz     px    dxy    dyz    dz2    dxz    dx2    tot
  1  0.000  0.000  0.002  0.000  0.000  0.511  0.000  0.478  0.000  0.991
 
band   6 # energy    7.25891676 # occ.  0.00423204
 
ion      s     py     pz     px    dxy    dyz    dz2    dxz    dx2    tot
  1  0.049  0.202  0.000  0.243  0.052  0.000  0.008  0.000  0.324  0.877
 
band   7 # energy   15.56762620 # occ.  0.00000000
 
ion      s     py     pz     px    dxy    dyz    dz2    dxz    dx2    tot
  1  0.353  0.082  0.000  0.021  0.379  0.000  0.111  0.000  0.003  0.949
 
band   8 # energy   25.55619504 # occ.  0.00000000
 
ion      s     py     pz     px    dxy    dyz    dz2    dxz    dx2    tot
  1  0.023  0.105  0.000  0.130  0.002  0.000  0.076  0.000  0.010  0.346
 
band   9 # energy   26.94216322 # occ.  0.00000000
 
ion      s     py     pz     px    dxy    dyz    dz2    dxz    dx2    tot
  1  0.000  0.000  0.627  0.000  0.000  0.056  0.000  0.217  0.000  0.900
 
band  10 # energy   32.46879139 # occ.  0.00000000
 
ion      s     py     pz     px    dxy    dyz    dz2    dxz    dx2    tot
  1  0.000  0.000  0.129  0.000  0.000  0.643  0.000  0.473  0.000  1.245
 
band  11 # energy   35.68721792 # occ.  0.00000000
 
ion      s     py     pz     px    dxy    dyz    dz2    dxz    dx2    tot