<?xml version="1.0" encoding="ISO-8859-1"?>
<modeling>
 <generator>
  <i name="program" type="string">vasp </i>
  <i name="version" type="string">5.4.1  </i>
  <i name="subversion" type="string">24Jun15 (build Jul 19 2016 16:50:41) complex                          parallel </i>
  <i name="platform" type="string">IFC91_ompi </i>
  <i name="date" type="string">2019 10 17 </i>
  <i name="time" type="string">12:37:58 </i>
 </generator>
 <incar>
  <i type="string" name="SYSTEM"> Fe BCC</i>
  <i type="string" name="PREC">accurate</i>
  <i type="int" name="ISPIN">     2</i>
  <i name="EDIFF">      0.00000100</i>
  <i name="ENMAX">    400.00000000</i>
  <v name="MAGMOM">      4.00000000</v>
  <i type="int" name="ISMEAR">    -5</i>
  <i type="logical" name="LORBIT"> F  </i>
  <v type="int" name="KPOINT_BSE">    -1     0     0     0</v>
 </incar>
 <kpoints>
  <generation param="Monkhorst-Pack">
   <v type="int" name="divisions">       8        8        8 </v>
   <v name="usershift">      0.00000000       0.00000000       0.00000000 </v>
   <v name="genvec1">      0.12500000       0.00000000       0.00000000 </v>
   <v name="genvec2">      0.00000000       0.12500000       0.00000000 </v>
   <v name="genvec3">      0.00000000       0.00000000       0.12500000 </v>
   <v name="shift">      0.50000000       0.50000000       0.50000000 </v>
  </generation>
  <varray name="kpointlist" >
   <v>       0.06250000       0.06250000       0.06250000 </v>
   <v>       0.18750000       0.06250000       0.06250000 </v>
   <v>       0.31250000       0.06250000       0.06250000 </v>
   <v>       0.43750000       0.06250000       0.06250000 </v>
   <v>      -0.06250000       0.06250000       0.06250000 </v>
   <v>       0.18750000       0.18750000       0.06250000 </v>
   <v>       0.31250000       0.18750000       0.06250000 </v>
   <v>      -0.18750000       0.18750000       0.06250000 </v>
   <v>       0.31250000       0.31250000       0.06250000 </v>
   <v>      -0.31250000       0.31250000       0.06250000 </v>
   <v>      -0.18750000       0.31250000       0.06250000 </v>
   <v>      -0.43750000       0.43750000       0.06250000 </v>
   <v>      -0.31250000       0.43750000       0.06250000 </v>
   <v>      -0.43750000      -0.43750000       0.06250000 </v>
   <v>      -0.31250000      -0.43750000       0.06250000 </v>
   <v>       0.18750000       0.18750000       0.18750000 </v>
   <v>       0.31250000       0.18750000       0.18750000 </v>
   <v>      -0.18750000       0.18750000       0.18750000 </v>
   <v>      -0.31250000       0.31250000       0.18750000 </v>
   <v>      -0.43750000       0.43750000       0.18750000 </v>
   <v>      -0.31250000       0.43750000       0.18750000 </v>
   <v>      -0.43750000      -0.43750000       0.18750000 </v>
   <v>      -0.31250000       0.31250000       0.31250000 </v>
   <v>      -0.43750000       0.43750000       0.31250000 </v>
   <v>      -0.43750000      -0.43750000       0.31250000 </v>
   <v>      -0.43750000       0.43750000       0.43750000 </v>
  </varray>
  <varray name="weights" >
   <v>       0.01562500 </v>
   <v>       0.04687500 </v>
   <v>       0.04687500 </v>
   <v>       0.02343750 </v>
   <v>       0.01171875 </v>
   <v>       0.04687500 </v>
   <v>       0.09375000 </v>
   <v>       0.04687500 </v>
   <v>       0.01562500 </v>
   <v>       0.04687500 </v>
   <v>       0.04687500 </v>
   <v>       0.04687500 </v>
   <v>       0.09375000 </v>
   <v>       0.04687500 </v>
   <v>       0.04687500 </v>
   <v>       0.01562500 </v>
   <v>       0.02343750 </v>
   <v>       0.01171875 </v>
   <v>       0.04687500 </v>
   <v>       0.04687500 </v>
   <v>       0.04687500 </v>
   <v>       0.04687500 </v>
   <v>       0.01171875 </v>
   <v>       0.04687500 </v>
   <v>       0.01562500 </v>
   <v>       0.01171875 </v>
  </varray>
  <varray name="tetrahedronlist"  type="int" >
   <v type="int" >        4        1        2        2        6 </v>
   <v type="int" >        8        2        2        6        6 </v>
   <v type="int" >        4        2        6        6       16 </v>
   <v type="int" >        4        2        3        6        7 </v>
   <v type="int" >        4        2        6        6        7 </v>
   <v type="int" >       12        6        6        7       16 </v>
   <v type="int" >        8        3        6        7        7 </v>
   <v type="int" >        8        6        7        7       17 </v>
   <v type="int" >        8        6        7       16       17 </v>
   <v type="int" >        4        3        4        7        7 </v>
   <v type="int" >        4        3        7        7        7 </v>
   <v type="int" >       16        7        7        7       17 </v>
   <v type="int" >        8        4        7        7        7 </v>
   <v type="int" >        4        7        7        7       16 </v>
   <v type="int" >       20        7        7       16       17 </v>
   <v type="int" >        4        3        4        6        7 </v>
   <v type="int" >        4        4        6        7        7 </v>
   <v type="int" >       16        6        7        7       16 </v>
   <v type="int" >        8        3        6        6        7 </v>
   <v type="int" >        4        6        6        6        7 </v>
   <v type="int" >        4        2        2        3        6 </v>
   <v type="int" >        8        2        3        6        6 </v>
   <v type="int" >        4        2        6        6        6 </v>
   <v type="int" >        4        2        2        2        6 </v>
   <v type="int" >        8        2        2        6       11 </v>
   <v type="int" >        4        2        6        6       11 </v>
   <v type="int" >       16        1        2        2        8 </v>
   <v type="int" >        4        2        2        2        8 </v>
   <v type="int" >       12        2        2        8       11 </v>
   <v type="int" >       16        1        2        8        8 </v>
   <v type="int" >        4        2        8        8       18 </v>
   <v type="int" >        4        2        8       11       18 </v>
   <v type="int" >       20        1        5        8        8 </v>
   <v type="int" >        4        1        8        8        8 </v>
   <v type="int" >        4        8        8        8       18 </v>
   <v type="int" >        8        5        8        8        8 </v>
   <v type="int" >        4        8        8        8       11 </v>
   <v type="int" >        4        8        8       11       18 </v>
   <v type="int" >        8        1        2        5        8 </v>
   <v type="int" >        8        2        5        8        8 </v>
   <v type="int" >        8        2        8        8       11 </v>
   <v type="int" >        4        2        2        6        8 </v>
   <v type="int" >        4        2        6        8       11 </v>
   <v type="int" >        4        6        7        9       16 </v>
   <v type="int" >       16        7        9       16       17 </v>
   <v type="int" >       12        9       16       17       17 </v>
   <v type="int" >       20        7        7        9       17 </v>
   <v type="int" >       12        7        9       17       17 </v>
   <v type="int" >        8        7        7       17       17 </v>
   <v type="int" >       12        3        6        7       16 </v>
   <v type="int" >        8        3        7        7       16 </v>
   <v type="int" >        8        3        6        6       16 </v>
   <v type="int" >        4        3        6       13       16 </v>
   <v type="int" >        4        3        7       13       16 </v>
   <v type="int" >        4        2        6        6       10 </v>
   <v type="int" >        4        3        6        6       10 </v>
   <v type="int" >        8        3        6       10       13 </v>
   <v type="int" >       12        2        6       10       11 </v>
   <v type="int" >        4        6       10       11       19 </v>
   <v type="int" >        4        6       10       13       19 </v>
   <v type="int" >        4        2        8       11       11 </v>
   <v type="int" >        4        2       10       11       11 </v>
   <v type="int" >        4       10       11       11       19 </v>
   <v type="int" >        8        8       11       11       18 </v>
   <v type="int" >        8       11       11       18       19 </v>
   <v type="int" >        4       11       11       19       19 </v>
   <v type="int" >        4        8        8       10       18 </v>
   <v type="int" >       12        8       10       11       18 </v>
   <v type="int" >       12       10       11       18       19 </v>
   <v type="int" >        4       10       11       13       18 </v>
   <v type="int" >        4       10       13       18       19 </v>
   <v type="int" >        4        2        3        8       11 </v>
   <v type="int" >        4        3        8       10       11 </v>
   <v type="int" >        8        3       10       11       13 </v>
   <v type="int" >       16        2        3        6       11 </v>
   <v type="int" >        4        3        6        7       11 </v>
   <v type="int" >        4        3        7       11       13 </v>
   <v type="int" >        4        4        7        9       17 </v>
   <v type="int" >        8        4        7        7       17 </v>
   <v type="int" >        4        4        7       14       17 </v>
   <v type="int" >        4        3        7        7       12 </v>
   <v type="int" >        8        4        7        7       12 </v>
   <v type="int" >        8        4        7       12       14 </v>
   <v type="int" >        8        3        7       12       13 </v>
   <v type="int" >        4        7       12       13       20 </v>
   <v type="int" >        4        7       12       14       20 </v>
   <v type="int" >        4        3       10       13       13 </v>
   <v type="int" >        4        3       12       13       13 </v>
   <v type="int" >        4       12       13       13       20 </v>
   <v type="int" >        8       10       13       13       19 </v>
   <v type="int" >       12       13       13       19       21 </v>
   <v type="int" >        4       13       13       20       21 </v>
   <v type="int" >        8       10       11       13       19 </v>
   <v type="int" >        8       11       13       19       19 </v>
   <v type="int" >        4       13       19       19       20 </v>
   <v type="int" >        8       13       19       20       21 </v>
   <v type="int" >        4       10       11       12       19 </v>
   <v type="int" >        4       11       12       13       19 </v>
   <v type="int" >        8       12       13       19       20 </v>
   <v type="int" >        8       10       12       13       19 </v>
   <v type="int" >        4       12       13       14       19 </v>
   <v type="int" >        4       12       14       19       20 </v>
   <v type="int" >        4        3        4       10       13 </v>
   <v type="int" >        4        4       10       12       13 </v>
   <v type="int" >       12        4       12       13       14 </v>
   <v type="int" >       12        3        4        7       13 </v>
   <v type="int" >        8        4        7        7       13 </v>
   <v type="int" >       12        4        7       13       14 </v>
   <v type="int" >        4        4       12       14       14 </v>
   <v type="int" >        4       12       14       14       20 </v>
   <v type="int" >        4       14       14       20       22 </v>
   <v type="int" >        4       12       13       15       20 </v>
   <v type="int" >        4       12       14       15       20 </v>
   <v type="int" >        8       14       15       20       22 </v>
   <v type="int" >       12       13       15       20       21 </v>
   <v type="int" >       12       15       20       21       22 </v>
   <v type="int" >        4       15       20       22       22 </v>
   <v type="int" >        4       13       13       14       21 </v>
   <v type="int" >       12       13       14       15       21 </v>
   <v type="int" >       16       14       15       21       22 </v>
   <v type="int" >        8       13       14       20       21 </v>
   <v type="int" >        4       14       20       20       21 </v>
   <v type="int" >       12       14       20       21       22 </v>
   <v type="int" >        4       12       12       13       20 </v>
   <v type="int" >        8       12       13       14       20 </v>
   <v type="int" >        8       12       14       20       20 </v>
   <v type="int" >        8       12       12       14       20 </v>
   <v type="int" >        4       12       13       20       20 </v>
   <v type="int" >       16        3        4       12       14 </v>
   <v type="int" >        8        3       12       12       14 </v>
   <v type="int" >        8        3       12       13       14 </v>
   <v type="int" >       16        3        4        7       14 </v>
   <v type="int" >        4        3        6        7       14 </v>
   <v type="int" >        4        3        6       13       14 </v>
   <v type="int" >        8       14       15       15       22 </v>
   <v type="int" >        8       15       15       22       22 </v>
   <v type="int" >        8       15       21       22       22 </v>
   <v type="int" >       12       13       14       15       22 </v>
   <v type="int" >        4       13       15       15       22 </v>
   <v type="int" >        8       13       15       21       22 </v>
   <v type="int" >       12       13       14       20       22 </v>
   <v type="int" >        4       13       19       20       22 </v>
   <v type="int" >        4       13       19       21       22 </v>
   <v type="int" >        4       10       12       14       20 </v>
   <v type="int" >        4       10       13       14       20 </v>
   <v type="int" >        8       10       13       19       20 </v>
   <v type="int" >        8       10       12       13       20 </v>
   <v type="int" >        4       10       11       13       20 </v>
   <v type="int" >        4       10       11       19       20 </v>
   <v type="int" >        4        2        3       12       13 </v>
   <v type="int" >        4        2       10       12       13 </v>
   <v type="int" >        8        2       10       11       13 </v>
   <v type="int" >       12        2        3        6       13 </v>
   <v type="int" >        4        2        2        6       13 </v>
   <v type="int" >        4        2        2       11       13 </v>
   <v type="int" >        4       11       13       15       21 </v>
   <v type="int" >        8       11       13       19       21 </v>
   <v type="int" >        4       11       18       19       21 </v>
   <v type="int" >        4        8       10       13       19 </v>
   <v type="int" >        4        8       11       13       19 </v>
   <v type="int" >        8        8       11       18       19 </v>
   <v type="int" >        8        8       10       11       19 </v>
   <v type="int" >        4        8        8       11       19 </v>
   <v type="int" >        4        8        8       18       19 </v>
   <v type="int" >        4        1        2       10       11 </v>
   <v type="int" >        4        1        8       10       11 </v>
   <v type="int" >        8        1        8        8       11 </v>
   <v type="int" >        8        1        2        2       11 </v>
   <v type="int" >       12        1        2        8       11 </v>
   <v type="int" >        4        5        8       11       18 </v>
   <v type="int" >        4        5        8        8       18 </v>
   <v type="int" >        4        1        5        8       18 </v>
   <v type="int" >        4        5        5        8        8 </v>
   <v type="int" >       12        1        5        5        8 </v>
   <v type="int" >        6        1        1        5        5 </v>
   <v type="int" >        8        1        1        5        8 </v>
   <v type="int" >        4        1        1        2        8 </v>
   <v type="int" >        4        2        3        6       16 </v>
   <v type="int" >        4        3        7       16       17 </v>
   <v type="int" >       12        7       16       17       17 </v>
   <v type="int" >        8        7       17       17       17 </v>
   <v type="int" >       12        7        7        9       16 </v>
   <v type="int" >        4        6        6        7        7 </v>
   <v type="int" >       16        3        6        7       13 </v>
   <v type="int" >       12        6        7        7       13 </v>
   <v type="int" >        4        3        6        6       11 </v>
   <v type="int" >       12        3        6       11       13 </v>
   <v type="int" >       12        2        3       10       11 </v>
   <v type="int" >        4        3       10       11       19 </v>
   <v type="int" >        4        3       11       13       19 </v>
   <v type="int" >        4        2        8       10       18 </v>
   <v type="int" >        4        2       10       11       18 </v>
   <v type="int" >        4       10       18       19       19 </v>
   <v type="int" >        4        8        8       11       11 </v>
   <v type="int" >        4        8       10       11       11 </v>
   <v type="int" >        4       10       11       11       13 </v>
   <v type="int" >        4       11       11       13       19 </v>
   <v type="int" >        4        2        6        8       10 </v>
   <v type="int" >        4        6        8       10       11 </v>
   <v type="int" >       12        6       10       11       13 </v>
   <v type="int" >        8        2        3        6       10 </v>
   <v type="int" >        4        3        6        7       10 </v>
   <v type="int" >        4        6        7       10       13 </v>
   <v type="int" >        4       16       17       17       17 </v>
   <v type="int" >        4       17       17       17       17 </v>
   <v type="int" >        4        9       17       17       17 </v>
   <v type="int" >        8        7        7       15       17 </v>
   <v type="int" >        8        7        9       15       17 </v>
   <v type="int" >        4        6        7       13       16 </v>
   <v type="int" >        4        7        7       13       16 </v>
   <v type="int" >       12        7        7       13       15 </v>
   <v type="int" >        8        6        7       13       13 </v>
   <v type="int" >        4        7       13       13       21 </v>
   <v type="int" >        4        7       13       15       21 </v>
   <v type="int" >        4        6       11       13       19 </v>
   <v type="int" >        4        6       13       13       19 </v>
   <v type="int" >        4       13       19       19       23 </v>
   <v type="int" >        4       13       19       21       23 </v>
   <v type="int" >        4       11       18       19       19 </v>
   <v type="int" >        4       11       19       19       19 </v>
   <v type="int" >        4       19       19       19       23 </v>
   <v type="int" >        4       18       19       19       19 </v>
   <v type="int" >        4       19       19       19       21 </v>
   <v type="int" >        4       19       19       21       23 </v>
   <v type="int" >        4       11       13       18       19 </v>
   <v type="int" >        4       13       18       19       19 </v>
   <v type="int" >        8       13       19       19       21 </v>
   <v type="int" >       12       11       13       13       19 </v>
   <v type="int" >        4       13       13       15       19 </v>
   <v type="int" >        4       13       15       19       21 </v>
   <v type="int" >        4        6        7       11       13 </v>
   <v type="int" >        4        7       11       13       13 </v>
   <v type="int" >        8        7       13       13       15 </v>
   <v type="int" >        4        7        7        9       13 </v>
   <v type="int" >        4        7        9       13       15 </v>
   <v type="int" >        4        7        9       14       17 </v>
   <v type="int" >       12        7        9       14       15 </v>
   <v type="int" >        4        9       14       15       22 </v>
   <v type="int" >        4        7       13       15       20 </v>
   <v type="int" >        4        7       14       15       20 </v>
   <v type="int" >        4       15       20       21       24 </v>
   <v type="int" >        4       15       20       22       24 </v>
   <v type="int" >        4       13       19       21       21 </v>
   <v type="int" >        4       13       20       21       21 </v>
   <v type="int" >        4       20       21       21       24 </v>
   <v type="int" >        8       19       21       21       23 </v>
   <v type="int" >        8       21       21       23       24 </v>
   <v type="int" >        4       21       21       24       24 </v>
   <v type="int" >        4       19       19       20       23 </v>
   <v type="int" >       12       19       20       21       23 </v>
   <v type="int" >       12       20       21       23       24 </v>
   <v type="int" >        4       20       21       22       23 </v>
   <v type="int" >        4       20       22       23       24 </v>
   <v type="int" >        4       13       14       19       21 </v>
   <v type="int" >        4       14       19       20       21 </v>
   <v type="int" >        4       14       15       15       21 </v>
   <v type="int" >       16        7       13       14       15 </v>
   <v type="int" >        8        7       14       15       15 </v>
   <v type="int" >       16        7        7        9       15 </v>
   <v type="int" >        4        7        7       15       15 </v>
   <v type="int" >        4       14       20       22       22 </v>
   <v type="int" >        8       20       22       22       24 </v>
   <v type="int" >       16       22       22       24       25 </v>
   <v type="int" >       16       20       21       22       24 </v>
   <v type="int" >        8       21       22       24       24 </v>
   <v type="int" >        4       22       24       24       24 </v>
   <v type="int" >       16       22       24       24       25 </v>
   <v type="int" >        4       20       20       21       24 </v>
   <v type="int" >       12       20       22       24       24 </v>
   <v type="int" >        8       20       20       22       24 </v>
   <v type="int" >        4       20       21       24       24 </v>
   <v type="int" >        4       13       20       20       22 </v>
   <v type="int" >        8       13       20       21       22 </v>
   <v type="int" >        4       13       13       15       22 </v>
   <v type="int" >        4       13       13       21       22 </v>
   <v type="int" >        4        6        7       14       15 </v>
   <v type="int" >        4        6       13       14       15 </v>
   <v type="int" >        4        6       13       13       15 </v>
   <v type="int" >        4        6        7        7       15 </v>
   <v type="int" >        4        3        6        7       15 </v>
   <v type="int" >        4        3        6       13       15 </v>
   <v type="int" >        8       21       22       22       25 </v>
   <v type="int" >       12       21       22       24       25 </v>
   <v type="int" >        4       21       23       24       25 </v>
   <v type="int" >        4       19       20       22       24 </v>
   <v type="int" >        4       19       21       22       24 </v>
   <v type="int" >        8       19       21       23       24 </v>
   <v type="int" >        8       19       20       21       24 </v>
   <v type="int" >        4       19       19       21       24 </v>
   <v type="int" >        4       19       19       23       24 </v>
   <v type="int" >        4       11       13       20       21 </v>
   <v type="int" >        4       11       19       20       21 </v>
   <v type="int" >        4       11       19       19       21 </v>
   <v type="int" >        4       11       13       13       21 </v>
   <v type="int" >        4       10       11       13       21 </v>
   <v type="int" >        4       10       11       19       21 </v>
   <v type="int" >        4        2        6       13       13 </v>
   <v type="int" >        4        2       11       13       13 </v>
   <v type="int" >       12        2        3       10       13 </v>
   <v type="int" >        4        2       10       10       13 </v>
   <v type="int" >        4       18       19       21       23 </v>
   <v type="int" >        4       18       19       19       23 </v>
   <v type="int" >        4       11       18       19       23 </v>
   <v type="int" >        4        8       11       19       19 </v>
   <v type="int" >        4        8       18       19       19 </v>
   <v type="int" >        4        2        8       10       19 </v>
   <v type="int" >        4        2        8       11       19 </v>
   <v type="int" >       16        2        8       10       11 </v>
   <v type="int" >        4        8        8       10       11 </v>
   <v type="int" >       12        2        8        8       10 </v>
   <v type="int" >        8        2        8       10       10 </v>
   <v type="int" >        4        8       10       10       11 </v>
   <v type="int" >        4        1        8       11       18 </v>
   <v type="int" >        4        2        8        8        8 </v>
   <v type="int" >        8        2        2        8       10 </v>
   <v type="int" >        4        2        2        3       10 </v>
   <v type="int" >        4        3        4        7       17 </v>
   <v type="int" >        4        4        7       16       17 </v>
   <v type="int" >        4        7        7        7        9 </v>
   <v type="int" >        4        4        7        7       14 </v>
   <v type="int" >        4        7        7        7       14 </v>
   <v type="int" >       12        3        4       12       13 </v>
   <v type="int" >        4        4       12       13       20 </v>
   <v type="int" >        4        4       13       14       20 </v>
   <v type="int" >        4        3       10       12       19 </v>
   <v type="int" >        4        3       12       13       19 </v>
   <v type="int" >        4       12       13       19       21 </v>
   <v type="int" >        4       12       19       20       21 </v>
   <v type="int" >        4       10       13       19       19 </v>
   <v type="int" >        8       13       13       19       20 </v>
   <v type="int" >        4       10       11       13       13 </v>
   <v type="int" >        4       10       12       13       13 </v>
   <v type="int" >        4       12       13       13       14 </v>
   <v type="int" >        4       13       13       14       20 </v>
   <v type="int" >        4        3        7       10       12 </v>
   <v type="int" >        4        7       10       12       13 </v>
   <v type="int" >        8        7       12       13       14 </v>
   <v type="int" >        8        3        4        7       12 </v>
   <v type="int" >        4        7        7       12       14 </v>
   <v type="int" >        4        7        9       15       16 </v>
   <v type="int" >       12        7        9       15       15 </v>
   <v type="int" >        8        7        7       14       15 </v>
   <v type="int" >        4        7       14       15       22 </v>
   <v type="int" >        4        7       15       15       22 </v>
   <v type="int" >        4        7       13       14       21 </v>
   <v type="int" >        4        7       14       15       21 </v>
   <v type="int" >        4       14       20       21       24 </v>
   <v type="int" >        4       14       21       22       24 </v>
   <v type="int" >        4       13       19       20       23 </v>
   <v type="int" >        4       13       20       21       23 </v>
   <v type="int" >        4       20       23       24       24 </v>
   <v type="int" >        4       19       19       21       21 </v>
   <v type="int" >        4       19       20       21       21 </v>
   <v type="int" >        4       20       21       21       22 </v>
   <v type="int" >        4       21       21       22       24 </v>
   <v type="int" >        4       13       15       19       20 </v>
   <v type="int" >        4       15       19       20       21 </v>
   <v type="int" >        8       13       14       15       20 </v>
   <v type="int" >        4       14       15       15       20 </v>
   <v type="int" >        4       15       15       20       22 </v>
   <v type="int" >        4        7        9       13       14 </v>
   <v type="int" >        4        9       13       14       15 </v>
   <v type="int" >        8        9       14       15       15 </v>
   <v type="int" >        8        7        7        9       14 </v>
   <v type="int" >        4        9       15       15       22 </v>
   <v type="int" >        4       15       22       22       25 </v>
   <v type="int" >        4       15       21       22       24 </v>
   <v type="int" >        4       15       22       22       24 </v>
   <v type="int" >        8       22       24       24       26 </v>
   <v type="int" >        8       22       24       25       26 </v>
   <v type="int" >        4       21       23       24       24 </v>
   <v type="int" >        4       21       24       24       24 </v>
   <v type="int" >        8       24       24       24       26 </v>
   <v type="int" >        4       23       24       24       24 </v>
   <v type="int" >        4       24       24       24       25 </v>
   <v type="int" >       20       24       24       25       26 </v>
   <v type="int" >        4       21       22       23       24 </v>
   <v type="int" >        4       22       23       24       24 </v>
   <v type="int" >       12       21       22       22       24 </v>
   <v type="int" >        4       22       22       22       24 </v>
   <v type="int" >        4       15       15       21       22 </v>
   <v type="int" >        4       15       22       22       22 </v>
   <v type="int" >        4       15       15       15       22 </v>
   <v type="int" >        4       14       15       22       22 </v>
   <v type="int" >        4        7       15       15       15 </v>
   <v type="int" >        4        4        7        7       15 </v>
   <v type="int" >        4        4        7       14       15 </v>
   <v type="int" >        4       22       24       25       25 </v>
   <v type="int" >        8       24       25       25       26 </v>
   <v type="int" >        6       25       25       26       26 </v>
   <v type="int" >       12       24       25       26       26 </v>
   <v type="int" >        4       24       24       26       26 </v>
   <v type="int" >        8       21       24       24       25 </v>
   <v type="int" >        4       20       21       22       25 </v>
   <v type="int" >        4       20       21       24       25 </v>
   <v type="int" >        4       13       15       22       22 </v>
   <v type="int" >        4       13       21       22       22 </v>
   <v type="int" >        4       12       13       14       22 </v>
   <v type="int" >        4       12       13       20       22 </v>
   <v type="int" >        4        3        7       14       15 </v>
   <v type="int" >        4        3       13       14       15 </v>
   <v type="int" >        4       23       24       25       26 </v>
   <v type="int" >        4       23       24       24       26 </v>
   <v type="int" >        4       21       23       24       26 </v>
   <v type="int" >        4       19       21       24       24 </v>
   <v type="int" >        4       19       23       24       24 </v>
   <v type="int" >        4       13       19       20       24 </v>
   <v type="int" >        4       13       19       21       24 </v>
   <v type="int" >        4       10       13       20       21 </v>
   <v type="int" >        4       10       19       20       21 </v>
   <v type="int" >        4        3       10       12       20 </v>
   <v type="int" >        4        3       10       13       20 </v>
   <v type="int" >        8        3       10       12       13 </v>
   <v type="int" >        4       10       10       12       13 </v>
   <v type="int" >        8        3       10       10       12 </v>
   <v type="int" >        8        3       10       12       12 </v>
   <v type="int" >        4       10       12       12       13 </v>
   <v type="int" >        4       11       19       21       23 </v>
   <v type="int" >        4        6       11       13       21 </v>
   <v type="int" >        4        2       10       13       19 </v>
   <v type="int" >        4        2       11       13       19 </v>
   <v type="int" >        8        2        6       11       13 </v>
   <v type="int" >        4        2        6        6       13 </v>
   <v type="int" >        4        3       10       10       11 </v>
   <v type="int" >        4        3       11       13       13 </v>
   <v type="int" >        4        2        2        6       10 </v>
   <v type="int" >        4        6       10       12       13 </v>
   <v type="int" >        4        3        6       10       12 </v>
   <v type="int" >        4        2        3        3       10 </v>
   <v type="int" >        4        3        3       10       12 </v>
   <v type="int" >        4        3        3        4       12 </v>
   <v type="int" >        4        3        4        7       16 </v>
   <v type="int" >        4        6        7        7        7 </v>
   <v type="int" >        4        6        6        7       13 </v>
   <v type="int" >        8        3        7        7       14 </v>
   <v type="int" >        8        3        7       13       14 </v>
   <v type="int" >        4        3       12       14       20 </v>
   <v type="int" >        4        3       13       14       20 </v>
   <v type="int" >        4        4       12       12       20 </v>
   <v type="int" >        4        4       12       14       20 </v>
   <v type="int" >        4       12       14       20       22 </v>
   <v type="int" >        4       12       20       20       22 </v>
   <v type="int" >        4       12       13       14       21 </v>
   <v type="int" >        4       12       14       20       21 </v>
   <v type="int" >        4       14       21       22       22 </v>
   <v type="int" >        4       13       13       15       20 </v>
   <v type="int" >        4       14       15       20       20 </v>
   <v type="int" >        4       15       20       20       22 </v>
   <v type="int" >        4       12       13       14       14 </v>
   <v type="int" >        4       13       14       14       20 </v>
   <v type="int" >        2       14       14       20       20 </v>
   <v type="int" >        2       12       12       14       14 </v>
   <v type="int" >        8        4        7       12       12 </v>
   <v type="int" >        4        7       12       12       14 </v>
   <v type="int" >        4        3        6        7       12 </v>
   <v type="int" >        4        6        7       12       13 </v>
   <v type="int" >        4        6        7       15       16 </v>
   <v type="int" >        8        6        7       13       15 </v>
   <v type="int" >        4        6       13       15       21 </v>
   <v type="int" >        4        7       13       14       22 </v>
   <v type="int" >        4        7       13       15       22 </v>
   <v type="int" >        4       13       20       22       24 </v>
   <v type="int" >        4       13       21       22       24 </v>
   <v type="int" >        4       14       20       20       24 </v>
   <v type="int" >        4       14       20       22       24 </v>
   <v type="int" >        4       20       22       24       25 </v>
   <v type="int" >        4       20       24       24       25 </v>
   <v type="int" >        6       22       22       24       24 </v>
   <v type="int" >        4       20       21       22       22 </v>
   <v type="int" >        2       20       20       22       22 </v>
   <v type="int" >        4        7        7       13       14 </v>
   <v type="int" >        4        3        7       13       13 </v>
   <v type="int" >        4       15       21       22       25 </v>
   <v type="int" >        4       21       24       25       26 </v>
   <v type="int" >        4       24       26       26       26 </v>
   <v type="int" >        6       24       24       25       25 </v>
   <v type="int" >        4        4        7       13       15 </v>
   <v type="int" >        4        4       13       14       15 </v>
   <v type="int" >        8        4       12       12       13 </v>
   <v type="int" >        4       25       26       26       26 </v>
   <v type="int" >        2       26       26       26       26 </v>
   <v type="int" >        4        4       12       12       14 </v>
   <v type="int" >        4       12       12       12       14 </v>
   <v type="int" >        8        4       12       12       12 </v>
   <v type="int" >        4        3        4        4       12 </v>
   <v type="int" >        4        4        4       12       12 </v>
   <v type="int" >        4        1        5        8       11 </v>
   <v type="int" >        4        1        2        6       11 </v>
   <v type="int" >        4        2        8       10       13 </v>
   <v type="int" >        4        2        8       11       13 </v>
   <v type="int" >        4        2        3        7       13 </v>
   <v type="int" >        4        2        6        7       13 </v>
   <v type="int" >        4        3       10       12       14 </v>
   <v type="int" >        4        3       10       13       14 </v>
   <v type="int" >        4        3        4        6       13 </v>
   <v type="int" >        4        4        6        7       13 </v>
   <v type="int" >        4        3       10       11       12 </v>
   <v type="int" >        4        3       11       12       13 </v>
   <v type="int" >        4        2        2        3       11 </v>
   <v type="int" >        6        2        2        8        8 </v>
   <v type="int" >        6        1        1        8        8 </v>
   <v type="int" >        4        5        5        5        8 </v>
   <v type="int" >        4        6       11       13       15 </v>
   <v type="int" >        4        6        7        9       15 </v>
   <v type="int" >        4        7       13       15       15 </v>
   <v type="int" >        4        7        7        7       15 </v>
   <v type="int" >        4        7       13       13       14 </v>
   <v type="int" >        4        3        7        7       13 </v>
   <v type="int" >        4        6       10       13       13 </v>
   <v type="int" >        4        2        6       10       10 </v>
   <v type="int" >        4        3        6       10       10 </v>
   <v type="int" >        4        2        2       10       11 </v>
   <v type="int" >        2        2        2       10       10 </v>
   <v type="int" >        4        1        8        8       10 </v>
   <v type="int" >        4        1        2        8       10 </v>
   <v type="int" >        4        2        3        8       10 </v>
   <v type="int" >        4        3        8       10       10 </v>
   <v type="int" >        4        4        7        9       14 </v>
   <v type="int" >        4        7       12       13       15 </v>
   <v type="int" >        4        7       12       14       15 </v>
   <v type="int" >        4        3        7       12       12 </v>
   <v type="int" >        4        3        3       10       13 </v>
   <v type="int" >        4        3        3       12       13 </v>
   <v type="int" >        2        3        3       12       12 </v>
   <v type="int" >        2        3        3       10       10 </v>
   <v type="int" >        4        2       10       10       12 </v>
   <v type="int" >        4        2        3       10       12 </v>
   <v type="int" >        4        3        4       10       12 </v>
   <v type="int" >        4        4       10       12       12 </v>
   <v type="int" >        4        4        4       12       14 </v>
   <v type="int" >        4        3       12       12       12 </v>
   <v type="int" >        4        3        4       12       12 </v>
   <v type="int" >        4        1        5        5        5 </v>
   <v type="int" >        2        5        5        5        5 </v>
  </varray>
  <i name="volumeweight">      0.00032552 </i>
 </kpoints>
 <parameters>
  <separator name="general" >
   <i type="string" name="SYSTEM">Fe BCC</i>
   <i type="logical" name="LCOMPAT"> F  </i>
  </separator>
  <separator name="electronic" >
   <i type="string" name="PREC">accura</i>
   <i name="ENMAX">    400.00000000</i>
   <i name="ENAUG">    511.36800000</i>
   <i name="EDIFF">      0.00000100</i>
   <i type="int" name="IALGO">    38</i>
   <i type="int" name="IWAVPR">    10</i>
   <i type="int" name="NBANDS">    12</i>
   <i name="NELECT">      8.00000000</i>
   <i type="int" name="TURBO">     0</i>
   <i type="int" name="IRESTART">     0</i>
   <i type="int" name="NREBOOT">     0</i>
   <i type="int" name="NMIN">     0</i>
   <i name="EREF">      0.00000000</i>
   <separator name="electronic smearing" >
    <i type="int" name="ISMEAR">    -5</i>
    <i name="SIGMA">      0.20000000</i>
    <i name="KSPACING">      0.50000000</i>
    <i type="logical" name="KGAMMA"> T  </i>
   </separator>
   <separator name="electronic projectors" >
    <i type="logical" name="LREAL"> F  </i>
    <v name="ROPT">      0.00000000</v>
    <i type="int" name="LMAXPAW">  -100</i>
    <i type="int" name="LMAXMIX">     2</i>
    <i type="logical" name="NLSPLINE"> F  </i>
   </separator>
   <separator name="electronic startup" >
    <i type="int" name="ISTART">     0</i>
    <i type="int" name="ICHARG">     2</i>
    <i type="int" name="INIWAV">     1</i>
   </separator>
   <separator name="electronic spin" >
    <i type="int" name="ISPIN">     2</i>
    <i type="logical" name="LNONCOLLINEAR"> F  </i>
    <v name="MAGMOM">      4.00000000</v>
    <i name="NUPDOWN">     -1.00000000</i>
    <i type="logical" name="LSORBIT"> F  </i>
    <v name="SAXIS">      0.00000000      0.00000000      1.00000000</v>
    <i type="logical" name="LSPIRAL"> F  </i>
    <v name="QSPIRAL">      0.00000000      0.00000000      0.00000000</v>
    <i type="logical" name="LZEROZ"> F  </i>
   </separator>
   <separator name="electronic exchange-correlation" >
    <i type="logical" name="LASPH"> F  </i>
    <i type="logical" name="LMETAGGA"> F  </i>
   </separator>
   <separator name="electronic convergence" >
    <i type="int" name="NELM">    60</i>
    <i type="int" name="NELMDL">    -5</i>
    <i type="int" name="NELMIN">     2</i>
    <i name="ENINI">    400.00000000</i>
    <separator name="electronic convergence detail" >
     <i type="logical" name="LDIAG"> T  </i>
     <i type="logical" name="LSUBROT"> F  </i>
     <i name="WEIMIN">      0.00000000</i>
     <i name="EBREAK">      0.00000002</i>
     <i name="DEPER">      0.30000000</i>
     <i type="int" name="NRMM">     4</i>
     <i name="TIME">      0.40000000</i>
    </separator>
   </separator>
   <separator name="electronic mixer" >
    <i name="AMIX">      0.40000000</i>
    <i name="BMIX">      1.00000000</i>
    <i name="AMIN">      0.10000000</i>
    <i name="AMIX_MAG">      1.60000000</i>
    <i name="BMIX_MAG">      1.00000000</i>
    <separator name="electronic mixer details" >
     <i type="int" name="IMIX">     4</i>
     <i type="logical" name="MIXFIRST"> F  </i>
     <i type="int" name="MAXMIX">   -45</i>
     <i name="WC">    100.00000000</i>
     <i type="int" name="INIMIX">     1</i>
     <i type="int" name="MIXPRE">     1</i>
     <i type="int" name="MREMOVE">     5</i>
    </separator>
   </separator>
   <separator name="electronic dipolcorrection" >
    <i type="logical" name="LDIPOL"> F  </i>
    <i type="logical" name="LMONO"> F  </i>
    <i type="int" name="IDIPOL">     0</i>
    <i name="EPSILON">      1.00000000</i>
    <v name="DIPOL">   -100.00000000   -100.00000000   -100.00000000</v>
    <i name="EFIELD">      0.00000000</i>
   </separator>
  </separator>
  <separator name="grids" >
   <i type="int" name="NGX">    16</i>
   <i type="int" name="NGY">    16</i>
   <i type="int" name="NGZ">    16</i>
   <i type="int" name="NGXF">    32</i>
   <i type="int" name="NGYF">    32</i>
   <i type="int" name="NGZF">    32</i>
   <i type="logical" name="ADDGRID"> F  </i>
  </separator>
  <separator name="ionic" >
   <i type="int" name="NSW">     0</i>
   <i type="int" name="IBRION">    -1</i>
   <i type="int" name="ISIF">     2</i>
   <i name="PSTRESS">      0.00000000</i>
   <i name="EDIFFG">      0.00001000</i>
   <i type="int" name="NFREE">     0</i>
   <i name="POTIM">      0.50000000</i>
   <i name="SMASS">     -3.00000000</i>
   <i name="SCALEE">      1.00000000</i>
  </separator>
  <separator name="ionic md" >
   <i name="TEBEG">      0.00010000</i>
   <i name="TEEND">      0.00010000</i>
   <i type="int" name="NBLOCK">     1</i>
   <i type="int" name="KBLOCK">     1</i>
   <i type="int" name="NPACO">   256</i>
   <i name="APACO">     16.00000000</i>
  </separator>
  <separator name="symmetry" >
   <i type="int" name="ISYM">     2</i>
   <i name="SYMPREC">      0.00001000</i>
  </separator>
  <separator name="dos" >
   <i type="logical" name="LORBIT"> F  </i>
   <v name="RWIGS">     -1.00000000</v>
   <i type="int" name="NEDOS">   301</i>
   <i name="EMIN">     10.00000000</i>
   <i name="EMAX">    -10.00000000</i>
   <i name="EFERMI">      0.00000000</i>
  </separator>
  <separator name="writing" >
   <i type="int" name="NWRITE">     2</i>
   <i type="logical" name="LWAVE"> T  </i>
   <i type="logical" name="LCHARG"> T  </i>
   <i type="logical" name="LPARD"> F  </i>
   <i type="logical" name="LVTOT"> F  </i>
   <i type="logical" name="LVHAR"> F  </i>
   <i type="logical" name="LELF"> F  </i>
   <i type="logical" name="LOPTICS"> F  </i>
   <v name="STM">      0.00000000      0.00000000      0.00000000      0.00000000      0.00000000      0.00000000      0.00000000</v>
  </separator>
  <separator name="performance" >
   <i type="int" name="NPAR">     4</i>
   <i type="int" name="NSIM">     4</i>
   <i type="int" name="NBLK">    -1</i>
   <i type="logical" name="LPLANE"> T  </i>
   <i type="logical" name="LSCALAPACK"> F  </i>
   <i type="logical" name="LSCAAWARE"> F  </i>
   <i type="logical" name="LSCALU"> F  </i>
   <i type="logical" name="LASYNC"> F  </i>
   <i type="logical" name="LORBITALREAL"> F  </i>
  </separator>
  <separator name="miscellaneous" >
   <i type="int" name="IDIOT">     3</i>
   <i type="logical" name="LMUSIC"> F  </i>
   <v name="POMASS">     55.84700000</v>
   <v name="DARWINR">      0.00000000</v>
   <v name="DARWINV">      1.00000000</v>
   <i type="logical" name="LCORR"> T  </i>
  </separator>
  <i type="logical" name="GGA_COMPAT"> T  </i>
  <i type="logical" name="LBERRY"> F  </i>
  <i type="int" name="ICORELEVEL">     0</i>
  <i type="logical" name="LDAU"> F  </i>
  <i type="int" name="I_CONSTRAINED_M">     0</i>
  <separator name="electronic exchange-correlation" >
   <i type="string" name="GGA">--</i>
   <i type="int" name="VOSKOWN">     0</i>
   <i type="logical" name="LHFCALC"> F  </i>
   <i type="string" name="PRECFOCK"></i>
   <i type="logical" name="LSYMGRAD"> F  </i>
   <i type="logical" name="LHFONE"> F  </i>
   <i type="logical" name="LRHFCALC"> F  </i>
   <i type="logical" name="LTHOMAS"> F  </i>
   <i type="logical" name="LMODELHF"> F  </i>
   <i name="ENCUT4O">     -1.00000000</i>
   <i type="int" name="EXXOEP">     0</i>
   <i type="int" name="FOURORBIT">     0</i>
   <i name="AEXX">      0.00000000</i>
   <i name="HFALPHA">      0.00000000</i>
   <i name="MCALPHA">      0.00000000</i>
   <i name="ALDAX">      1.00000000</i>
   <i name="AGGAX">      1.00000000</i>
   <i name="ALDAC">      1.00000000</i>
   <i name="AGGAC">      1.00000000</i>
   <i type="int" name="NKREDX">     1</i>
   <i type="int" name="NKREDY">     1</i>
   <i type="int" name="NKREDZ">     1</i>
   <i type="logical" name="SHIFTRED"> F  </i>
   <i type="logical" name="ODDONLY"> F  </i>
   <i type="logical" name="EVENONLY"> F  </i>
   <i type="int" name="LMAXFOCK">     0</i>
   <i type="int" name="NMAXFOCKAE">     0</i>
   <i type="logical" name="LFOCKAEDFT"> F  </i>
   <i name="HFSCREEN">      0.00000000</i>
   <i name="HFSCREENC">      0.00000000</i>
   <i type="int" name="NBANDSGWLOW">     0</i>
  </separator>
  <separator name="vdW DFT" >
   <i type="logical" name="LUSE_VDW"> F  </i>
   <i name="Zab_VDW">     -0.84910000</i>
   <i name="PARAM1">      0.12340000</i>
   <i name="PARAM2">      1.00000000</i>
   <i name="PARAM3">      0.00000000</i>
  </separator>
  <separator name="model GW" >
   <i type="int" name="MODEL_GW">     0</i>
   <i name="MODEL_EPS0">      6.30737280</i>
   <i name="MODEL_ALPHA">      1.00000000</i>
  </separator>
  <separator name="linear response parameters" >
   <i type="logical" name="LEPSILON"> F  </i>
   <i type="logical" name="LRPA"> F  </i>
   <i type="logical" name="LNABLA"> F  </i>
   <i type="logical" name="LVEL"> F  </i>
   <i type="int" name="KINTER">     0</i>
   <i name="CSHIFT">      0.10000000</i>
   <i name="OMEGAMAX">     -1.00000000</i>
   <i name="DEG_THRESHOLD">      0.00200000</i>
  </separator>
  <separator name="orbital magnetization" >
   <i type="logical" name="NUCIND"> F  </i>
   <v name="MAGPOS">      0.00000000      0.00000000      0.00000000</v>
   <i type="logical" name="LNICSALL"> T  </i>
   <i type="logical" name="ORBITALMAG"> F  </i>
   <i type="logical" name="LMAGBLOCH"> F  </i>
   <i type="logical" name="LCHIMAG"> F  </i>
   <i type="logical" name="LGAUGE"> T  </i>
   <i type="int" name="MAGATOM">     0</i>
   <v name="MAGDIPOL">      0.00000000      0.00000000      0.00000000</v>
   <v name="AVECCONST">      0.00000000      0.00000000      0.00000000</v>
  </separator>
  <separator name="response functions" >
   <i type="logical" name="LADDER"> F  </i>
   <i type="logical" name="LFXC"> F  </i>
   <i type="logical" name="LHARTREE"> T  </i>
   <i type="int" name="IBSE">     0</i>
   <v type="int" name="KPOINT">    -1     0     0     0</v>
   <i type="logical" name="LTCTE"> F  </i>
   <i type="logical" name="LTETE"> F  </i>
   <i type="logical" name="LTRIPLET"> F  </i>
   <i type="logical" name="LFXCEPS"> F  </i>
   <i type="logical" name="LFXHEG"> F  </i>
   <i type="int" name="NATURALO">     0</i>
   <i type="logical" name="L2ORDER"> F  </i>
   <i type="logical" name="LUSEW"> F  </i>
   <i name="ENCUTGW">     -2.00000000</i>
   <i name="ENCUTGWSOFT">     -2.00000000</i>
   <i name="ENCUTLF">     -1.00000000</i>
   <i type="int" name="LMAXMP2">    -1</i>
   <i name="SCISSOR">      0.00000000</i>
   <i type="int" name="NOMEGA">     0</i>
   <i type="int" name="NOMEGAR">     0</i>
   <i type="int" name="NBANDSGW">    -1</i>
   <i type="int" name="NBANDSO">    -1</i>
   <i type="int" name="NBANDSV">    -1</i>
   <i type="int" name="NELM">     1</i>
   <i type="int" name="NELMHF">     1</i>
   <i type="int" name="DIM">     3</i>
   <i type="int" name="ANTIRES">     0</i>
   <i name="OMEGAMAX">    -30.00000000</i>
   <i name="OMEGAMIN">    -30.00000000</i>
   <i name="OMEGATL">   -200.00000000</i>
   <i type="int" name="OMEGAGRID">     0</i>
   <i name="CSHIFT">     -0.10000000</i>
   <i type="logical" name="SELFENERGY"> F  </i>
   <i type="logical" name="LSPECTRAL"> F  </i>
   <i type="logical" name="LSPECTRALGW"> F  </i>
   <i type="logical" name="LSINGLES"> F  </i>
   <i type="logical" name="LFERMIGW"> F  </i>
   <i type="logical" name="ODDONLYGW"> F  </i>
   <i type="logical" name="EVENONLYGW"> F  </i>
   <i type="int" name="NKREDLFX">     1</i>
   <i type="int" name="NKREDLFY">     1</i>
   <i type="int" name="NKREDLFZ">     1</i>
   <i type="int" name="MAXMEM">  1800</i>
   <i type="int" name="TELESCOPE">     0</i>
   <i type="int" name="TAUPAR">     1</i>
   <i type="int" name="OMEGAPAR">    -1</i>
   <i name="LAMBDA">      1.00000000</i>
  </separator>
  <separator name="External order field" >
   <i name="OFIELD_KAPPA">      0.00000000</i>
   <v name="OFIELD_K">      0.00000000      0.00000000      0.00000000</v>
   <i name="OFIELD_Q6_NEAR">      0.00000000</i>
   <i name="OFIELD_Q6_FAR">      0.00000000</i>
   <i name="OFIELD_A">      0.00000000</i>
  </separator>
 </parameters>
 <atominfo>
  <atoms>       1 </atoms>
  <types>       1 </types>
  <array name="atoms" >
   <dimension dim="1">ion</dimension>
   <field type="string">element</field>
   <field type="int">atomtype</field>
   <set>
    <rc><c>Fe</c><c>   1</c></rc>
   </set>
  </array>
  <array name="atomtypes" >
   <dimension dim="1">type</dimension>
   <field type="int">atomspertype</field>
   <field type="string">element</field>
   <field>mass</field>
   <field>valence</field>
   <field type="string">pseudopotential</field>
   <set>
    <rc><c>   1</c><c>Fe</c><c>     55.84700000</c><c>      8.00000000</c><c>  PAW Fe 03Mar1998                      </c></rc>
   </set>
  </array>
 </atominfo>
 <structure name="initialpos" >
  <crystal>
   <varray name="basis" >
    <v>      -1.38000000       1.38000000       1.38000000 </v>
    <v>       1.38000000      -1.38000000       1.38000000 </v>
    <v>       1.38000000       1.38000000      -1.38000000 </v>
   </varray>
   <i name="volume">     10.51228800 </i>
   <varray name="rec_basis" >
    <v>       0.00000000       0.36231884       0.36231884 </v>
    <v>       0.36231884       0.00000000       0.36231884 </v>
    <v>       0.36231884       0.36231884       0.00000000 </v>
   </varray>
  </crystal>
  <varray name="positions" >
   <v>       0.00000000       0.00000000       0.00000000 </v>
  </varray>
 </structure>
 <calculation>
  <scstep>
   <time name="dav">    3.37    3.38</time>
   <time name="total">    3.47    3.48</time>
   <energy>
    <i name="alphaZ">     63.71252005 </i>
    <i name="ewald">   -607.58477817 </i>
    <i name="hartreedc">   -105.16419373 </i>
    <i name="XCdc">      6.71077370 </i>
    <i name="pawpsdc">    552.76102510 </i>
    <i name="pawaedc">   -562.19386350 </i>
    <i name="eentropy">      0.00000000 </i>
    <i name="bandstr">     71.02242695 </i>
    <i name="atom">    597.35192723 </i>
    <i name="e_fr_energy">     16.61583764 </i>
    <i name="e_wo_entrp">     16.61583764 </i>
    <i name="e_0_energy">     16.61583764 </i>
   </energy>
  </scstep>
  <scstep>
   <time name="dav">    3.74    3.70</time>
   <time name="total">    3.82    3.78</time>
   <energy>
    <i name="e_fr_energy">     -9.17974345 </i>
    <i name="e_wo_entrp">     -9.17974345 </i>
    <i name="e_0_energy">     -9.17974345 </i>
   </energy>
  </scstep>
  <scstep>
   <time name="dav">    3.72    3.72</time>
   <time name="total">    3.79    3.80</time>
   <energy>
    <i name="e_fr_energy">     -9.78198581 </i>
    <i name="e_wo_entrp">     -9.78198581 </i>
    <i name="e_0_energy">     -9.78198581 </i>
   </energy>
  </scstep>
  <scstep>
   <time name="dav">    3.36    3.36</time>
   <time name="total">    3.44    3.45</time>
   <energy>
    <i name="e_fr_energy">     -9.78438635 </i>
    <i name="e_wo_entrp">     -9.78438635 </i>
    <i name="e_0_energy">     -9.78438635 </i>
   </energy>
  </scstep>
  <scstep>
   <time name="dav">    3.73    3.74</time>
   <time name="total">    3.85    3.86</time>
   <energy>
    <i name="e_fr_energy">     -9.78440242 </i>
    <i name="e_wo_entrp">     -9.78440242 </i>
    <i name="e_0_energy">     -9.78440242 </i>
   </energy>
  </scstep>
  <scstep>
   <time name="dav">    3.64    3.64</time>
   <time name="total">    3.78    3.78</time>
   <energy>
    <i name="e_fr_energy">     -9.27542121 </i>
    <i name="e_wo_entrp">     -9.27542121 </i>
    <i name="e_0_energy">     -9.27542121 </i>
   </energy>
  </scstep>
  <scstep>
   <time name="dav">    3.55    3.53</time>
   <time name="total">    3.70    3.67</time>
   <energy>
    <i name="e_fr_energy">     -9.24505316 </i>
    <i name="e_wo_entrp">     -9.24505316 </i>
    <i name="e_0_energy">     -9.24505316 </i>
   </energy>
  </scstep>
  <scstep>
   <time name="dav">    3.62    3.65</time>
   <time name="total">    3.74    3.78</time>
   <energy>
    <i name="e_fr_energy">     -9.23197400 </i>
    <i name="e_wo_entrp">     -9.23197400 </i>
    <i name="e_0_energy">     -9.23197400 </i>
   </energy>
  </scstep>
  <scstep>
   <time name="dav">    2.90    2.98</time>
   <time name="total">    3.08    3.16</time>
   <energy>
    <i name="e_fr_energy">     -9.22233208 </i>
    <i name="e_wo_entrp">     -9.22233208 </i>
    <i name="e_0_energy">     -9.22233208 </i>
   </energy>
  </scstep>
  <scstep>
   <time name="dav">    2.91    2.92</time>
   <time name="total">    3.08    3.08</time>
   <energy>
    <i name="e_fr_energy">     -9.22243565 </i>
    <i name="e_wo_entrp">     -9.22243565 </i>
    <i name="e_0_energy">     -9.22243565 </i>
   </energy>
  </scstep>
  <scstep>
   <time name="dav">    3.16    3.16</time>
   <time name="total">    3.35    3.37</time>
   <energy>
    <i name="e_fr_energy">     -9.22283396 </i>
    <i name="e_wo_entrp">     -9.22283396 </i>
    <i name="e_0_energy">     -9.22283396 </i>
   </energy>
  </scstep>
  <scstep>
   <time name="dav">    3.50    3.45</time>
   <time name="total">    3.62    3.58</time>
   <energy>
    <i name="e_fr_energy">     -9.22300640 </i>
    <i name="e_wo_entrp">     -9.22300640 </i>
    <i name="e_0_energy">     -9.22300640 </i>
   </energy>
  </scstep>
  <scstep>
   <time name="dav">    2.18    2.19</time>
   <time name="total">    2.30    2.31</time>
   <energy>
    <i name="e_fr_energy">     -9.22296086 </i>
    <i name="e_wo_entrp">     -9.22296086 </i>
    <i name="e_0_energy">     -9.22296086 </i>
   </energy>
  </scstep>
  <scstep>
   <time name="dav">    2.23    2.20</time>
   <time name="total">    2.39    2.35</time>
   <energy>
    <i name="e_fr_energy">     -9.22291529 </i>
    <i name="e_wo_entrp">     -9.22291529 </i>
    <i name="e_0_energy">     -9.22291529 </i>
   </energy>
  </scstep>
  <scstep>
   <time name="dav">    2.02    2.02</time>
   <time name="total">    2.16    2.16</time>
   <energy>
    <i name="e_fr_energy">     -9.22290320 </i>
    <i name="e_wo_entrp">     -9.22290320 </i>
    <i name="e_0_energy">     -9.22290320 </i>
   </energy>
  </scstep>
  <scstep>
   <time name="dav">    2.01    2.01</time>
   <time name="total">    2.16    2.17</time>
   <energy>
    <i name="e_fr_energy">     -9.22290138 </i>
    <i name="e_wo_entrp">     -9.22290138 </i>
    <i name="e_0_energy">     -9.22290138 </i>
   </energy>
  </scstep>
  <scstep>
   <time name="dav">    2.09    2.10</time>
   <time name="total">    2.19    2.20</time>
   <energy>
    <i name="alphaZ">     63.71252005 </i>
    <i name="ewald">   -607.58477817 </i>
    <i name="hartreedc">    -88.93199805 </i>
    <i name="XCdc">      4.67472282 </i>
    <i name="pawpsdc">    750.12861169 </i>
    <i name="pawaedc">   -761.03761746 </i>
    <i name="eentropy">      0.00000000 </i>
    <i name="bandstr">     32.46371102 </i>
    <i name="atom">    597.35192723 </i>
    <i name="e_fr_energy">     -9.22290086 </i>
    <i name="e_wo_entrp">     -9.22290086 </i>
    <i name="e_0_energy">     -9.22290086 </i>
   </energy>
  </scstep>
  <structure>
   <crystal>
    <varray name="basis" >
     <v>      -1.38000000       1.38000000       1.38000000 </v>
     <v>       1.38000000      -1.38000000       1.38000000 </v>
     <v>       1.38000000       1.38000000      -1.38000000 </v>
    </varray>
    <i name="volume">     10.51228800 </i>
    <varray name="rec_basis" >
     <v>       0.00000000       0.36231884       0.36231884 </v>
     <v>       0.36231884       0.00000000       0.36231884 </v>
     <v>       0.36231884       0.36231884       0.00000000 </v>
    </varray>
   </crystal>
   <varray name="positions" >
    <v>       0.00000000       0.00000000       0.00000000 </v>
   </varray>
  </structure>
  <varray name="forces" >
   <v>      -0.00000000      -0.00000000      -0.00000000 </v>
  </varray>
  <varray name="stress" >
   <v>     -33.04809696       0.00000000      -0.00000000 </v>
   <v>       0.00000000     -33.04809696      -0.00000000 </v>
   <v>       0.00000000      -0.00000000     -33.04809696 </v>
  </varray>
  <energy>
   <i name="e_fr_energy">     -9.22290086 </i>
   <i name="e_wo_entrp">     -9.22290086 </i>
   <i name="e_0_energy">      0.00000000 </i>
  </energy>
  <time name="totalsc">   54.34   54.51</time>
  <eigenvalues>
   <array>
    <dimension dim="1">band</dimension>
    <dimension dim="2">kpoint</dimension>
    <dimension dim="3">spin</dimension>
    <field>eigene</field>
    <field>occ</field>
    <set>
     <set comment="spin 1">
      <set comment="kpoint 1">
       <r>   -1.4408    1.0000 </r>
       <r>    3.8619    1.0000 </r>
       <r>    3.8619    1.0000 </r>
       <r>    4.7860    1.0000 </r>
       <r>    5.5472    1.0000 </r>
       <r>    5.5472    1.0029 </r>
       <r>   28.6927    0.0000 </r>
       <r>   28.6927    0.0000 </r>
       <r>   33.0938    0.0000 </r>
       <r>   33.4210    0.0000 </r>
       <r>   38.8502    0.0000 </r>
       <r>   38.8502    0.0000 </r>
      </set>
      <set comment="kpoint 2">
       <r>    0.2326    1.0000 </r>
       <r>    3.3865    1.0000 </r>
       <r>    3.6283    1.0000 </r>
       <r>    5.4647    1.0000 </r>
       <r>    5.6943    1.0018 </r>
       <r>    5.9502    0.8619 </r>
       <r>   23.3004    0.0000 </r>
       <r>   26.3330    0.0000 </r>
       <r>   29.2859    0.0000 </r>
       <r>   33.6146    0.0000 </r>
       <r>   38.4524    0.0000 </r>
       <r>   39.4500    0.0000 </r>
      </set>
      <set comment="kpoint 3">
       <r>    1.3791    1.0000 </r>
       <r>    2.9815    1.0000 </r>
       <r>    4.4602    1.0000 </r>
       <r>    5.6220    1.0000 </r>
       <r>    5.8136    1.0338 </r>
       <r>    7.5138   -0.0071 </r>
       <r>   17.7645    0.0000 </r>
       <r>   24.5414    0.0000 </r>
       <r>   26.7536    0.0000 </r>
       <r>   33.2485    0.0000 </r>
       <r>   37.7610    0.0000 </r>
       <r>   42.8407    0.0000 </r>
      </set>
      <set comment="kpoint 4">
       <r>    1.4152    1.0000 </r>
       <r>    2.8265    1.0000 </r>
       <r>    5.5571    1.0000 </r>
       <r>    5.6997    1.0000 </r>
       <r>    5.8632    1.0686 </r>
       <r>    8.8660   -0.0046 </r>
       <r>   14.6650    0.0000 </r>
       <r>   23.8724    0.0000 </r>
       <r>   25.8032    0.0000 </r>
       <r>   33.0613    0.0000 </r>
       <r>   37.6958    0.0000 </r>
       <r>   42.5808    0.0000 </r>
      </set>
      <set comment="kpoint 5">
       <r>   -2.0957    1.0000 </r>
       <r>    4.0985    1.0000 </r>
       <r>    4.0985    1.0000 </r>
       <r>    4.2004    1.0000 </r>
       <r>    5.4587    1.0000 </r>
       <r>    5.6955    1.0000 </r>
       <r>   30.4839    0.0000 </r>
       <r>   31.9008    0.0000 </r>
       <r>   31.9008    0.0000 </r>
       <r>   35.6373    0.0000 </r>
       <r>   38.1419    0.0000 </r>
       <r>   38.1419    0.0000 </r>
      </set>
      <set comment="kpoint 6">
       <r>    1.7751    1.0000 </r>
       <r>    3.0644    1.0000 </r>
       <r>    3.2862    1.0000 </r>
       <r>    5.5579    1.0000 </r>
       <r>    5.8461    1.0013 </r>
       <r>    7.7534   -0.0257 </r>
       <r>   20.6801    0.0000 </r>
       <r>   21.6247    0.0000 </r>
       <r>   25.7518    0.0000 </r>
       <r>   35.6479    0.0000 </r>
       <r>   39.7629    0.0000 </r>
       <r>   42.2878    0.0000 </r>
      </set>
      <set comment="kpoint 7">
       <r>    2.1143    1.0000 </r>
       <r>    2.8693    1.0000 </r>
       <r>    3.9950    1.0000 </r>
       <r>    5.7199    1.0000 </r>
       <r>    5.9490    1.0108 </r>
       <r>   10.3110   -0.0028 </r>
       <r>   16.0082    0.0000 </r>
       <r>   19.9459    0.0000 </r>
       <r>   24.3541    0.0000 </r>
       <r>   36.1267    0.0000 </r>
       <r>   40.6917    0.0000 </r>
       <r>   43.0371    0.0000 </r>
      </set>
      <set comment="kpoint 8">
       <r>   -0.8335    1.0000 </r>
       <r>    3.7866    1.0000 </r>
       <r>    4.0107    1.0000 </r>
       <r>    4.9073    1.0000 </r>
       <r>    5.1661    1.0000 </r>
       <r>    5.8120    1.0073 </r>
       <r>   26.1876    0.0000 </r>
       <r>   29.5479    0.0000 </r>
       <r>   30.6515    0.0000 </r>
       <r>   34.9912    0.0000 </r>
       <r>   35.2588    0.0000 </r>
       <r>   36.8510    0.0000 </r>
      </set>
      <set comment="kpoint 9">
       <r>    2.4615    1.0000 </r>
       <r>    3.2792    1.0000 </r>
       <r>    3.2792    1.0000 </r>
       <r>    5.8815    1.0000 </r>
       <r>    5.8815    1.0037 </r>
       <r>   13.9711    0.0000 </r>
       <r>   13.9711    0.0000 </r>
       <r>   16.7893    0.0000 </r>
       <r>   23.8616    0.0000 </r>
       <r>   38.6559    0.0000 </r>
       <r>   38.6559    0.0000 </r>
       <r>   46.5261    0.0000 </r>
      </set>
      <set comment="kpoint 10">
       <r>    0.8540    1.0000 </r>
       <r>    3.3262    1.0000 </r>
       <r>    4.0661    1.0000 </r>
       <r>    5.3783    1.0000 </r>
       <r>    6.0077    1.0143 </r>
       <r>    6.0733    0.6716 </r>
       <r>   20.3807    0.0000 </r>
       <r>   27.0211    0.0000 </r>
       <r>   28.6379    0.0000 </r>
       <r>   33.2048    0.0000 </r>
       <r>   35.3029    0.0000 </r>
       <r>   38.1884    0.0000 </r>
      </set>
      <set comment="kpoint 11">
       <r>    0.6837    1.0000 </r>
       <r>    3.5464    1.0000 </r>
       <r>    3.7664    1.0000 </r>
       <r>    5.0013    1.0000 </r>
       <r>    5.7802    1.0039 </r>
       <r>    6.2090    0.6994 </r>
       <r>   23.3393    0.0000 </r>
       <r>   24.4904    0.0000 </r>
       <r>   30.9942    0.0000 </r>
       <r>   31.5493    0.0000 </r>
       <r>   35.4055    0.0000 </r>
       <r>   40.1997    0.0000 </r>
      </set>
      <set comment="kpoint 12">
       <r>    1.2856    1.0000 </r>
       <r>    3.0156    1.0000 </r>
       <r>    4.9788    1.0000 </r>
       <r>    5.5877    1.0000 </r>
       <r>    7.0182    0.2712 </r>
       <r>    7.2589    0.0042 </r>
       <r>   15.5676    0.0000 </r>
       <r>   25.5562    0.0000 </r>
       <r>   26.9422    0.0000 </r>
       <r>   32.4688    0.0000 </r>
       <r>   35.6872    0.0000 </r>
       <r>   39.7417    0.0000 </r>
      </set>
      <set comment="kpoint 13">
       <r>    1.7593    1.0000 </r>
       <r>    3.1899    1.0000 </r>
       <r>    3.8429    1.0000 </r>
       <r>    5.3420    1.0000 </r>
       <r>    6.2438    1.0050 </r>
       <r>    8.0311   -0.0381 </r>
       <r>   18.1342    0.0000 </r>
       <r>   22.1226    0.0000 </r>
       <r>   28.8604    0.0000 </r>
       <r>   32.1921    0.0000 </r>
       <r>   35.9695    0.0000 </r>
       <r>   40.8446    0.0000 </r>
      </set>
      <set comment="kpoint 14">
       <r>    1.7785    1.0000 </r>
       <r>    3.1711    1.0000 </r>
       <r>    4.0524    1.0000 </r>
       <r>    5.4716    1.0000 </r>
       <r>    6.6211    0.6619 </r>
       <r>   10.0398   -0.0016 </r>
       <r>   14.7384    0.0000 </r>
       <r>   21.3833    0.0000 </r>
       <r>   27.9523    0.0000 </r>
       <r>   32.6206    0.0000 </r>
       <r>   36.7799    0.0000 </r>
       <r>   40.1553    0.0000 </r>
      </set>
      <set comment="kpoint 15">
       <r>    2.5521    1.0000 </r>
       <r>    2.8539    1.0000 </r>
       <r>    3.4622    1.0000 </r>
       <r>    5.6814    1.0000 </r>
       <r>    6.2051    1.0600 </r>
       <r>   11.4327   -0.0004 </r>
       <r>   16.0354    0.0000 </r>
       <r>   17.5836    0.0000 </r>
       <r>   29.4019    0.0000 </r>
       <r>   32.4402    0.0000 </r>
       <r>   34.7719    0.0000 </r>
       <r>   42.8100    0.0000 </r>
      </set>
      <set comment="kpoint 16">
       <r>    2.8493    1.0000 </r>
       <r>    2.8493    1.0000 </r>
       <r>    3.0403    1.0000 </r>
       <r>    5.8288    1.0000 </r>
       <r>    5.8288    1.0000 </r>
       <r>   10.3413   -0.0038 </r>
       <r>   18.9660    0.0000 </r>
       <r>   18.9660    0.0000 </r>
       <r>   20.6458    0.0000 </r>
       <r>   40.4606    0.0000 </r>
       <r>   43.5030    0.0000 </r>
       <r>   43.5030    0.0000 </r>
      </set>
      <set comment="kpoint 17">
       <r>    2.7193    1.0000 </r>
       <r>    2.8025    1.0000 </r>
       <r>    3.5400    1.0000 </r>
       <r>    5.8676    1.0000 </r>
       <r>    5.8932    1.0000 </r>
       <r>   13.2173    0.0000 </r>
       <r>   15.2534    0.0000 </r>
       <r>   18.3742    0.0000 </r>
       <r>   19.6272    0.0000 </r>
       <r>   41.6528    0.0000 </r>
       <r>   45.2569    0.0000 </r>
       <r>   45.9029    0.0000 </r>
      </set>
      <set comment="kpoint 18">
       <r>    0.2652    1.0000 </r>
       <r>    4.2471    1.0000 </r>
       <r>    4.2645    1.0000 </r>
       <r>    4.2645    1.0000 </r>
       <r>    4.9218    1.0000 </r>
       <r>    6.2240    0.8377 </r>
       <r>   26.1661    0.0000 </r>
       <r>   27.5470    0.0000 </r>
       <r>   27.5470    0.0000 </r>
       <r>   29.5302    0.0000 </r>
       <r>   39.2926    0.0000 </r>
       <r>   39.2926    0.0000 </r>
      </set>
      <set comment="kpoint 19">
       <r>    1.6207    1.0000 </r>
       <r>    3.3427    1.0000 </r>
       <r>    4.1015    1.0000 </r>
       <r>    4.8802    1.0000 </r>
       <r>    5.9371    1.0450 </r>
       <r>    7.1148    0.0555 </r>
       <r>   21.2504    0.0000 </r>
       <r>   24.8495    0.0000 </r>
       <r>   25.8452    0.0000 </r>
       <r>   30.0954    0.0000 </r>
       <r>   38.3480    0.0000 </r>
       <r>   40.2394    0.0000 </r>
      </set>
      <set comment="kpoint 20">
       <r>    1.8962    1.0000 </r>
       <r>    3.2585    1.0000 </r>
       <r>    3.8721    1.0000 </r>
       <r>    5.1458    1.0000 </r>
       <r>    6.9231    0.1282 </r>
       <r>    9.6368   -0.0098 </r>
       <r>   16.0429    0.0000 </r>
       <r>   23.1267    0.0000 </r>
       <r>   24.9686    0.0000 </r>
       <r>   32.5846    0.0000 </r>
       <r>   37.3773    0.0000 </r>
       <r>   38.2727    0.0000 </r>
      </set>
      <set comment="kpoint 21">
       <r>    2.2658    1.0000 </r>
       <r>    2.6214    1.0000 </r>
       <r>    4.1959    1.0000 </r>
       <r>    5.3305    1.0000 </r>
       <r>    6.4343    0.9016 </r>
       <r>    9.5698   -0.0122 </r>
       <r>   18.9887    0.0000 </r>
       <r>   19.6971    0.0000 </r>
       <r>   27.3355    0.0000 </r>
       <r>   29.0423    0.0000 </r>
       <r>   37.0835    0.0000 </r>
       <r>   40.4242    0.0000 </r>
      </set>
      <set comment="kpoint 22">
       <r>    2.2038    1.0000 </r>
       <r>    2.6342    1.0000 </r>
       <r>    3.9680    1.0000 </r>
       <r>    5.6931    1.0000 </r>
       <r>    6.6986    0.2697 </r>
       <r>   12.6521    0.0000 </r>
       <r>   15.1224    0.0000 </r>
       <r>   18.6252    0.0000 </r>
       <r>   27.3678    0.0000 </r>
       <r>   30.5736    0.0000 </r>
       <r>   34.7071    0.0000 </r>
       <r>   39.3538    0.0000 </r>
      </set>
      <set comment="kpoint 23">
       <r>    2.0305    1.0000 </r>
       <r>    2.5731    1.0000 </r>
       <r>    5.1475    1.0000 </r>
       <r>    5.1475    1.0000 </r>
       <r>    5.9792    1.1689 </r>
       <r>    8.9036   -0.0174 </r>
       <r>   21.7338    0.0000 </r>
       <r>   21.7338    0.0000 </r>
       <r>   23.9424    0.0000 </r>
       <r>   26.2674    0.0000 </r>
       <r>   38.8277    0.0000 </r>
       <r>   43.3111    0.0000 </r>
      </set>
      <set comment="kpoint 24">
       <r>    1.9020    1.0000 </r>
       <r>    2.0530    1.0000 </r>
       <r>    5.3090    1.0000 </r>
       <r>    5.6363    1.0020 </r>
       <r>    6.7924    0.0827 </r>
       <r>   12.1250    0.0000 </r>
       <r>   17.1513    0.0000 </r>
       <r>   19.7685    0.0000 </r>
       <r>   24.1982    0.0000 </r>
       <r>   27.1800    0.0000 </r>
       <r>   34.1522    0.0000 </r>
       <r>   42.7936    0.0000 </r>
      </set>
      <set comment="kpoint 25">
       <r>    1.7415    1.0000 </r>
       <r>    1.7415    1.0000 </r>
       <r>    5.4301    1.0000 </r>
       <r>    6.6071    0.9883 </r>
       <r>    6.6071    0.1229 </r>
       <r>   15.6409    0.0000 </r>
       <r>   15.6409    0.0000 </r>
       <r>   16.9019    0.0000 </r>
       <r>   25.6617    0.0000 </r>
       <r>   25.6617    0.0000 </r>
       <r>   31.6974    0.0000 </r>
       <r>   43.3967    0.0000 </r>
      </set>
      <set comment="kpoint 26">
       <r>    1.4405    1.0000 </r>
       <r>    1.4432    1.0000 </r>
       <r>    6.5580    1.0000 </r>
       <r>    6.5580    1.0046 </r>
       <r>    6.7525    0.0219 </r>
       <r>   14.9695    0.0000 </r>
       <r>   17.5636    0.0000 </r>
       <r>   17.5636    0.0000 </r>
       <r>   23.1393    0.0000 </r>
       <r>   24.3471    0.0000 </r>
       <r>   30.1491    0.0000 </r>
       <r>   46.4845    0.0000 </r>
      </set>
     </set>
     <set comment="spin 2">
      <set comment="kpoint 1">
       <r>   -1.0719    1.0000 </r>
       <r>    5.4663    1.0000 </r>
       <r>    5.4663    1.0000 </r>
       <r>    6.4678    0.6889 </r>
       <r>    7.6645    0.0000 </r>
       <r>    7.6645    0.0000 </r>
       <r>   29.1668    0.0000 </r>
       <r>   29.1668    0.0000 </r>
       <r>   33.2434    0.0000 </r>
       <r>   34.2144    0.0000 </r>
       <r>   39.3002    0.0000 </r>
       <r>   39.3002    0.0000 </r>
      </set>
      <set comment="kpoint 2">
       <r>    0.6772    1.0000 </r>
       <r>    4.9258    1.0000 </r>
       <r>    5.1314    1.0000 </r>
       <r>    7.5213   -0.0546 </r>
       <r>    7.6733    0.0000 </r>
       <r>    7.8412    0.0000 </r>
       <r>   24.0413    0.0000 </r>
       <r>   26.8711    0.0000 </r>
       <r>   30.0104    0.0000 </r>
       <r>   33.9199    0.0000 </r>
       <r>   39.1257    0.0000 </r>
       <r>   39.8870    0.0000 </r>
      </set>
      <set comment="kpoint 3">
       <r>    2.2961    1.0000 </r>
       <r>    4.4654    1.0000 </r>
       <r>    5.5093    1.0000 </r>
       <r>    7.6586   -0.0000 </r>
       <r>    7.9950    0.0000 </r>
       <r>    9.1583    0.0000 </r>
       <r>   18.7358    0.0000 </r>
       <r>   25.0491    0.0000 </r>
       <r>   27.4153    0.0000 </r>
       <r>   33.7393    0.0000 </r>
       <r>   38.4372    0.0000 </r>
       <r>   43.2337    0.0000 </r>
      </set>
      <set comment="kpoint 4">
       <r>    2.5711    1.0000 </r>
       <r>    4.2899    1.0000 </r>
       <r>    6.5096    1.0000 </r>
       <r>    7.7440    0.0000 </r>
       <r>    8.0614    0.0000 </r>
       <r>   10.1797    0.0000 </r>
       <r>   15.8832    0.0000 </r>
       <r>   24.3564    0.0000 </r>
       <r>   26.4266    0.0000 </r>
       <r>   33.6103    0.0000 </r>
       <r>   38.3972    0.0000 </r>
       <r>   42.8875    0.0000 </r>
      </set>
      <set comment="kpoint 5">
       <r>   -1.7346    1.0000 </r>
       <r>    5.7323    1.0000 </r>
       <r>    5.7323    1.0000 </r>
       <r>    5.8505    1.0989 </r>
       <r>    7.5654    0.0000 </r>
       <r>    7.8474    0.0000 </r>
       <r>   30.7765    0.0000 </r>
       <r>   32.1581    0.0000 </r>
       <r>   32.1581    0.0000 </r>
       <r>   36.1487    0.0000 </r>
       <r>   38.8960    0.0000 </r>
       <r>   38.8960    0.0000 </r>
      </set>
      <set comment="kpoint 6">
       <r>    2.4587    1.0000 </r>
       <r>    4.5163    1.0000 </r>
       <r>    4.6655    1.0000 </r>
       <r>    7.6211   -0.0002 </r>
       <r>    8.0022    0.0000 </r>
       <r>    9.3854    0.0000 </r>
       <r>   21.5102    0.0000 </r>
       <r>   22.3374    0.0000 </r>
       <r>   26.3971    0.0000 </r>
       <r>   35.9431    0.0000 </r>
       <r>   40.2632    0.0000 </r>
       <r>   42.7912    0.0000 </r>
      </set>
      <set comment="kpoint 7">
       <r>    3.2897    1.0000 </r>
       <r>    4.2760    1.0000 </r>
       <r>    5.1391    1.0000 </r>
       <r>    7.7894    0.0000 </r>
       <r>    8.0913    0.0000 </r>
       <r>   11.6095    0.0000 </r>
       <r>   17.0280    0.0000 </r>
       <r>   20.6820    0.0000 </r>
       <r>   24.9766    0.0000 </r>
       <r>   36.5156    0.0000 </r>
       <r>   41.0773    0.0000 </r>
       <r>   43.6191    0.0000 </r>
      </set>
      <set comment="kpoint 8">
       <r>   -0.4480    1.0000 </r>
       <r>    5.3771    1.0000 </r>
       <r>    5.6017    1.0000 </r>
       <r>    6.6063    0.3674 </r>
       <r>    7.1871    0.0000 </r>
       <r>    7.9729    0.0000 </r>
       <r>   26.8155    0.0000 </r>
       <r>   29.9416    0.0000 </r>
       <r>   31.2056    0.0000 </r>
       <r>   35.5104    0.0000 </r>
       <r>   35.9076    0.0000 </r>
       <r>   37.3905    0.0000 </r>
      </set>
      <set comment="kpoint 9">
       <r>    3.7882    1.0000 </r>
       <r>    4.5445    1.0000 </r>
       <r>    4.5445    1.0000 </r>
       <r>    7.9816    0.0000 </r>
       <r>    7.9816    0.0000 </r>
       <r>   15.0287    0.0000 </r>
       <r>   15.0287    0.0000 </r>
       <r>   17.6426    0.0000 </r>
       <r>   24.5067    0.0000 </r>
       <r>   39.0083    0.0000 </r>
       <r>   39.0083    0.0000 </r>
       <r>   47.2191    0.0000 </r>
      </set>
      <set comment="kpoint 10">
       <r>    1.4837    1.0000 </r>
       <r>    4.8584    1.0000 </r>
       <r>    5.4029    1.0000 </r>
       <r>    7.3141   -0.0276 </r>
       <r>    7.8691    0.0000 </r>
       <r>    8.1245    0.0000 </r>
       <r>   21.2526    0.0000 </r>
       <r>   27.4019    0.0000 </r>
       <r>   29.3311    0.0000 </r>
       <r>   33.8331    0.0000 </r>
       <r>   35.9316    0.0000 </r>
       <r>   38.6609    0.0000 </r>
      </set>
      <set comment="kpoint 11">
       <r>    1.1789    1.0000 </r>
       <r>    5.1195    1.0000 </r>
       <r>    5.2836    1.0002 </r>
       <r>    6.9190   -0.0238 </r>
       <r>    7.5751    0.0000 </r>
       <r>    8.2670    0.0000 </r>
       <r>   24.1167    0.0000 </r>
       <r>   25.1487    0.0000 </r>
       <r>   31.4942    0.0000 </r>
       <r>   32.1121    0.0000 </r>
       <r>   35.9682    0.0000 </r>
       <r>   40.6902    0.0000 </r>
      </set>
      <set comment="kpoint 12">
       <r>    2.3891    1.0000 </r>
       <r>    4.5112    1.0000 </r>
       <r>    6.2628    1.0000 </r>
       <r>    7.5628   -0.0000 </r>
       <r>    8.6868    0.0000 </r>
       <r>    8.9098    0.0000 </r>
       <r>   16.7085    0.0000 </r>
       <r>   25.9039    0.0000 </r>
       <r>   27.5882    0.0000 </r>
       <r>   33.1526    0.0000 </r>
       <r>   36.3917    0.0000 </r>
       <r>   40.1308    0.0000 </r>
      </set>
      <set comment="kpoint 13">
       <r>    2.7223    1.0000 </r>
       <r>    4.6683    1.0000 </r>
       <r>    5.1984    1.0005 </r>
       <r>    7.2414   -0.0047 </r>
       <r>    8.2213    0.0000 </r>
       <r>    9.6063    0.0000 </r>
       <r>   19.0813    0.0000 </r>
       <r>   22.8288    0.0000 </r>
       <r>   29.3532    0.0000 </r>
       <r>   32.7808    0.0000 </r>
       <r>   36.4994    0.0000 </r>
       <r>   41.4266    0.0000 </r>
      </set>
      <set comment="kpoint 14">
       <r>    2.9994    1.0000 </r>
       <r>    4.6543    1.0000 </r>
       <r>    5.3872    1.0006 </r>
       <r>    7.4085   -0.0000 </r>
       <r>    8.5234    0.0000 </r>
[...]
       </set>
       <set comment="band 5">
        <r>  0.0080  0.0020  0.0020  0.0151  0.0953  0.3390  0.1068  0.0953  0.3204 </r>
       </set>
       <set comment="band 6">
        <r>  0.0628  0.0500  0.0500  0.2447  0.0901  0.1415  0.0485  0.0901  0.1456 </r>
       </set>
       <set comment="band 7">
        <r>  0.0000  0.2159  0.2159  0.0000  0.1429  0.0000  0.1500  0.1429  0.0500 </r>
       </set>
       <set comment="band 8">
        <r>  0.4690  0.0442  0.0442  0.0282  0.0866  0.0947  0.0015  0.0866  0.0044 </r>
       </set>
       <set comment="band 9">
        <r>  0.0267  0.1895  0.1895  0.0890  0.0589  0.0957  0.0007  0.0589  0.0020 </r>
       </set>
       <set comment="band 10">
        <r>  0.0000  0.0444  0.0444  0.0000  0.0625  0.0000  0.3466  0.0625  0.1155 </r>
       </set>
       <set comment="band 11">
        <r>  0.0254  0.0085  0.0085  0.0310  0.0246  0.1692  0.1075  0.0246  0.3225 </r>
       </set>
       <set comment="band 12">
        <r>  0.1085  0.0353  0.0353  0.1747  0.2602  0.2961  0.0226  0.2602  0.0677 </r>
       </set>
      </set>
      <set comment="kpoint 16">
       <set comment="band 1">
        <r>  0.1575  0.0939  0.0939  0.0939  0.1448  0.1448  0.0000  0.1448  0.0000 </r>
       </set>
       <set comment="band 2">
        <r>  0.0000  0.0407  0.0001  0.0444  0.0009  0.4237  0.0001  0.3884  0.0493 </r>
       </set>
       <set comment="band 3">
        <r>  0.0000  0.0161  0.0567  0.0124  0.5410  0.1183  0.0493  0.1536  0.0001 </r>
       </set>
       <set comment="band 4">
        <r>  0.0000  0.0000  0.0001  0.0000  0.0407  0.0113  0.9228  0.0092  0.0033 </r>
       </set>
       <set comment="band 5">
        <r>  0.0000  0.0001  0.0000  0.0001  0.0001  0.0295  0.0033  0.0316  0.9228 </r>
       </set>
       <set comment="band 6">
        <r>  0.0790  0.0693  0.0693  0.0693  0.2153  0.2153  0.0000  0.2153  0.0000 </r>
       </set>
       <set comment="band 7">
        <r>  0.0000  0.0300  0.2317  0.0949  0.2916  0.1194  0.0429  0.0378  0.0011 </r>
       </set>
       <set comment="band 8">
        <r>  0.0000  0.2078  0.0061  0.1429  0.0076  0.1798  0.0011  0.2614  0.0429 </r>
       </set>
       <set comment="band 9">
        <r>  0.5769  0.0823  0.0823  0.0823  0.0017  0.0017  0.0000  0.0017  0.0000 </r>
       </set>
       <set comment="band 10">
        <r>  0.0000  0.0000  0.0000  0.0000  0.0000  0.0000  0.0000  0.0000  0.0000 </r>
       </set>
       <set comment="band 11">
        <r>  0.0000  0.0019  0.0009  0.0051  0.0745  0.4124  0.0140  0.1572  0.0667 </r>
       </set>
       <set comment="band 12">
        <r>  0.0000  0.0034  0.0044  0.0002  0.3549  0.0170  0.0667  0.2722  0.0140 </r>
       </set>
      </set>
      <set comment="kpoint 17">
       <set comment="band 1">
        <r>  0.0342  0.0000  0.0000  0.1391  0.0000  0.6980  0.0138  0.0000  0.0413 </r>
       </set>
       <set comment="band 2">
        <r>  0.0000  0.0481  0.0481  0.0000  0.4265  0.0000  0.0000  0.4265  0.0000 </r>
       </set>
       <set comment="band 3">
        <r>  0.0000  0.1271  0.1271  0.0000  0.3292  0.0000  0.0000  0.3292  0.0000 </r>
       </set>
       <set comment="band 4">
        <r>  0.0005  0.0000  0.0000  0.0005  0.0000  0.0708  0.2293  0.0000  0.6880 </r>
       </set>
       <set comment="band 5">
        <r>  0.0000  0.0000  0.0000  0.0000  0.0000  0.0000  0.7429  0.0000  0.2476 </r>
       </set>
       <set comment="band 6">
        <r>  0.0000  0.1971  0.1971  0.0000  0.2447  0.0000  0.0000  0.2447  0.0000 </r>
       </set>
       <set comment="band 7">
        <r>  0.2365  0.0000  0.0000  0.2050  0.0000  0.4262  0.0073  0.0000  0.0219 </r>
       </set>
       <set comment="band 8">
        <r>  0.0000  0.1827  0.1827  0.0000  0.2390  0.0000  0.0000  0.2390  0.0000 </r>
       </set>
       <set comment="band 9">
        <r>  0.5509  0.0000  0.0000  0.2177  0.0000  0.0498  0.0020  0.0000  0.0061 </r>
       </set>
       <set comment="band 10">
        <r>  0.0000  0.0002  0.0002  0.0000  0.1443  0.0000  0.0000  0.1443  0.0000 </r>
       </set>
       <set comment="band 11">
        <r>  0.0000  0.0270  0.0270  0.0000  0.0734  0.0000  0.0000  0.0734  0.0000 </r>
       </set>
       <set comment="band 12">
        <r>  0.0132  0.0000  0.0000  0.0994  0.0000  0.1550  0.1220  0.0000  0.3657 </r>
       </set>
      </set>
      <set comment="kpoint 18">
       <set comment="band 1">
        <r>  0.5595  0.0000  0.0000  0.1973  0.0000  0.0000  0.0138  0.0000  0.0413 </r>
       </set>
       <set comment="band 2">
        <r>  0.0000  0.0135  0.0135  0.0000  0.4744  0.0000  0.0000  0.4745  0.0000 </r>
       </set>
       <set comment="band 3">
        <r>  0.0000  0.0135  0.0135  0.0000  0.4745  0.0000  0.0000  0.4744  0.0000 </r>
       </set>
       <set comment="band 4">
        <r>  0.0000  0.0000  0.0000  0.0000  0.0000  0.0000  0.6897  0.0000  0.2299 </r>
       </set>
       <set comment="band 5">
        <r>  0.0000  0.0000  0.0000  0.0000  0.0000  0.9831  0.0000  0.0000  0.0000 </r>
       </set>
       <set comment="band 6">
        <r>  0.0347  0.0000  0.0000  0.0099  0.0000  0.0000  0.2353  0.0000  0.7058 </r>
       </set>
       <set comment="band 7">
        <r>  0.0000  0.0000  0.0000  0.0000  0.0000  0.0000  0.5115  0.0000  0.1705 </r>
       </set>
       <set comment="band 8">
        <r>  0.0000  0.1776  0.1776  0.0000  0.3231  0.0000  0.0000  0.3232  0.0000 </r>
       </set>
       <set comment="band 9">
        <r>  0.0000  0.1776  0.1776  0.0000  0.3232  0.0000  0.0000  0.3231  0.0000 </r>
       </set>
       <set comment="band 10">
        <r>  0.1580  0.0000  0.0000  0.2832  0.0000  0.0000  0.0000  0.0000  0.0001 </r>
       </set>
       <set comment="band 11">
        <r>  0.0000  0.1658  0.1627  0.0000  0.0037  0.0000  0.0000  0.0036  0.0000 </r>
       </set>
       <set comment="band 12">
        <r>  0.0000  0.1627  0.1658  0.0000  0.0036  0.0000  0.0000  0.0037  0.0000 </r>
       </set>
      </set>
      <set comment="kpoint 19">
       <set comment="band 1">
        <r>  0.3294  0.0070  0.0000  0.2351  0.0621  0.0000  0.0855  0.0000  0.1144 </r>
       </set>
       <set comment="band 2">
        <r>  0.0031  0.0300  0.0000  0.0143  0.1669  0.0000  0.4371  0.0000  0.2534 </r>
       </set>
       <set comment="band 3">
        <r>  0.0000  0.0000  0.0267  0.0000  0.0000  0.2835  0.0000  0.6611  0.0000 </r>
       </set>
       <set comment="band 4">
        <r>  0.0000  0.0285  0.0000  0.0097  0.6758  0.0000  0.2415  0.0000  0.0054 </r>
       </set>
       <set comment="band 5">
        <r>  0.0000  0.0000  0.0103  0.0000  0.0000  0.6971  0.0000  0.2730  0.0000 </r>
       </set>
       <set comment="band 6">
        <r>  0.1075  0.0103  0.0000  0.0684  0.0113  0.0000  0.1629  0.0000  0.6097 </r>
       </set>
       <set comment="band 7">
        <r>  0.0916  0.2794  0.0000  0.0352  0.3093  0.0000  0.1381  0.0000  0.0586 </r>
       </set>
       <set comment="band 8">
        <r>  0.0000  0.0000  0.5050  0.0000  0.0000  0.0116  0.0000  0.4701  0.0000 </r>
       </set>
       <set comment="band 9">
        <r>  0.0921  0.0013  0.0000  0.0769  0.0333  0.0000  0.4019  0.0000  0.0543 </r>
       </set>
       <set comment="band 10">
        <r>  0.0604  0.2050  0.0000  0.0669  0.1392  0.0000  0.0438  0.0000  0.1445 </r>
       </set>
       <set comment="band 11">
        <r>  0.0000  0.0000  0.1726  0.0000  0.0000  0.6771  0.0000  0.1563  0.0000 </r>
       </set>
       <set comment="band 12">
        <r>  0.0667  0.1787  0.0000  0.0114  0.1046  0.0000  0.2098  0.0000  0.1016 </r>
       </set>
      </set>
      <set comment="kpoint 20">
       <set comment="band 1">
        <r>  0.1138  0.0018  0.0000  0.0794  0.2675  0.0000  0.4004  0.0000  0.0248 </r>
       </set>
       <set comment="band 2">
        <r>  0.0071  0.0928  0.0000  0.1026  0.0153  0.0000  0.0789  0.0000  0.5779 </r>
       </set>
       <set comment="band 3">
        <r>  0.0000  0.0000  0.0261  0.0000  0.0000  0.4221  0.0000  0.5213  0.0000 </r>
       </set>
       <set comment="band 4">
        <r>  0.0237  0.0132  0.0000  0.0004  0.5239  0.0000  0.3921  0.0000  0.0059 </r>
       </set>
       <set comment="band 5">
        <r>  0.0000  0.0000  0.0030  0.0000  0.0000  0.5561  0.0000  0.4310  0.0000 </r>
       </set>
       <set comment="band 6">
        <r>  0.0770  0.1226  0.0000  0.2537  0.0384  0.0000  0.0311  0.0000  0.3980 </r>
       </set>
       <set comment="band 7">
        <r>  0.2764  0.2037  0.0000  0.0021  0.3172  0.0000  0.1076  0.0000  0.0286 </r>
       </set>
       <set comment="band 8">
        <r>  0.0000  0.0000  0.6084  0.0000  0.0000  0.0731  0.0000  0.2399  0.0000 </r>
       </set>
       <set comment="band 9">
        <r>  0.1044  0.0234  0.0000  0.0546  0.0098  0.0000  0.4389  0.0000  0.0061 </r>
       </set>
       <set comment="band 10">
        <r>  0.0103  0.1521  0.0000  0.0004  0.0304  0.0000  0.0368  0.0000  0.4383 </r>
       </set>
       <set comment="band 11">
        <r>  0.0000  0.0000  0.1446  0.0000  0.0000  0.5875  0.0000  0.3813  0.0000 </r>
       </set>
       <set comment="band 12">
        <r>  0.0031  0.1467  0.0000  0.2131  0.0045  0.0000  0.4243  0.0000  0.1119 </r>
       </set>
      </set>
      <set comment="kpoint 21">
       <set comment="band 1">
        <r>  0.1209  0.0049  0.0049  0.1893  0.0487  0.0004  0.1113  0.0487  0.3340 </r>
       </set>
       <set comment="band 2">
        <r>  0.0000  0.0210  0.0210  0.0000  0.0574  0.0000  0.5541  0.0574  0.1847 </r>
       </set>
       <set comment="band 3">
        <r>  0.0075  0.0172  0.0172  0.0091  0.2527  0.3261  0.0188  0.2527  0.0565 </r>
       </set>
       <set comment="band 4">
        <r>  0.0000  0.0189  0.0189  0.0000  0.3920  0.0000  0.1092  0.3920  0.0364 </r>
       </set>
       <set comment="band 5">
        <r>  0.0144  0.0003  0.0003  0.0077  0.1175  0.6118  0.0280  0.1175  0.0839 </r>
       </set>
       <set comment="band 6">
        <r>  0.1450  0.0218  0.0218  0.2264  0.0450  0.0400  0.0972  0.0450  0.2917 </r>
       </set>
       <set comment="band 7">
        <r>  0.0000  0.2240  0.2240  0.0000  0.1217  0.0000  0.1870  0.1217  0.0623 </r>
       </set>
       <set comment="band 8">
        <r>  0.2405  0.1540  0.1540  0.0319  0.1194  0.0302  0.0041  0.1194  0.0123 </r>
       </set>
       <set comment="band 9">
        <r>  0.0000  0.0634  0.0634  0.0000  0.0548  0.0000  0.4547  0.0548  0.1516 </r>
       </set>
       <set comment="band 10">
        <r>  0.0831  0.1201  0.1201  0.0324  0.0123  0.0022  0.0594  0.0123  0.1782 </r>
       </set>
       <set comment="band 11">
        <r>  0.0014  0.0690  0.0690  0.1248  0.0608  0.2741  0.0654  0.0608  0.1962 </r>
       </set>
       <set comment="band 12">
        <r>  0.1614  0.0001  0.0001  0.1819  0.1307  0.2674  0.0455  0.1307  0.1365 </r>
       </set>
      </set>
      <set comment="kpoint 22">
       <set comment="band 1">
        <r>  0.0262  0.0246  0.0226  0.0246  0.1449  0.0000  0.6472  0.0000  0.0000 </r>
       </set>
       <set comment="band 2">
        <r>  0.0000  0.0744  0.0000  0.0744  0.0000  0.0163  0.0000  0.0163  0.6985 </r>
       </set>
       <set comment="band 3">
        <r>  0.0348  0.0013  0.0227  0.0013  0.1669  0.3448  0.0387  0.3448  0.0000 </r>
       </set>
       <set comment="band 4">
        <r>  0.0112  0.0081  0.0148  0.0081  0.5254  0.1120  0.1774  0.1120  0.0000 </r>
       </set>
       <set comment="band 5">
        <r>  0.0000  0.0117  0.0000  0.0117  0.0000  0.4415  0.0000  0.4415  0.0786 </r>
       </set>
       <set comment="band 6">
        <r>  0.0000  0.2664  0.0000  0.2664  0.0000  0.0472  0.0000  0.0472  0.2818 </r>
       </set>
       <set comment="band 7">
        <r>  0.2656  0.1002  0.0476  0.1002  0.2675  0.0002  0.1424  0.0002  0.0000 </r>
       </set>
       <set comment="band 8">
        <r>  0.1745  0.0024  0.3988  0.0024  0.0034  0.1036  0.0864  0.1036  0.0000 </r>
       </set>
       <set comment="band 9">
        <r>  0.0283  0.0022  0.1516  0.0022  0.0189  0.0158  0.5379  0.0158  0.0000 </r>
       </set>
       <set comment="band 10">
        <r>  0.0000  0.0483  0.0000  0.0483  0.0000  0.0067  0.0000  0.0067  0.6350 </r>
       </set>
       <set comment="band 11">
        <r>  0.0346  0.2121  0.0888  0.2121  0.0002  0.0521  0.1184  0.0521  0.0000 </r>
       </set>
       <set comment="band 12">
        <r>  0.2132  0.0258  0.0069  0.0258  0.2163  0.3266  0.0118  0.3266  0.0000 </r>
       </set>
      </set>
      <set comment="kpoint 23">
       <set comment="band 1">
        <r>  0.1277  0.0000  0.0000  0.2171  0.0000  0.0000  0.1271  0.0000  0.3812 </r>
       </set>
       <set comment="band 2">
        <r>  0.0000  0.0000  0.0000  0.0000  0.0000  0.0000  0.6677  0.0000  0.2226 </r>
       </set>
       <set comment="band 3">
        <r>  0.0000  0.0275  0.0275  0.0000  0.4551  0.0000  0.0000  0.4552  0.0000 </r>
       </set>
       <set comment="band 4">
        <r>  0.0000  0.0275  0.0275  0.0000  0.4552  0.0000  0.0000  0.4551  0.0000 </r>
       </set>
       <set comment="band 5">
        <r>  0.0000  0.0000  0.0000  0.0000  0.0000  0.9796  0.0000  0.0000  0.0000 </r>
       </set>
       <set comment="band 6">
        <r>  0.2088  0.0000  0.0000  0.2140  0.0000  0.0000  0.1274  0.0000  0.3821 </r>
       </set>
       <set comment="band 7">
        <r>  0.0000  0.2979  0.2979  0.0000  0.1684  0.0000  0.0000  0.1684  0.0000 </r>
       </set>
       <set comment="band 8">
        <r>  0.0000  0.2979  0.2979  0.0000  0.1684  0.0000  0.0000  0.1683  0.0000 </r>
       </set>
       <set comment="band 9">
        <r>  0.0000  0.0000  0.0000  0.0000  0.0000  0.0000  0.6932  0.0000  0.2311 </r>
       </set>
       <set comment="band 10">
        <r>  0.2795  0.0000  0.0000  0.0735  0.0000  0.0000  0.0634  0.0000  0.1903 </r>
       </set>
       <set comment="band 11">
        <r>  0.1293  0.0000  0.0000  0.3142  0.0000  0.0000  0.1234  0.0000  0.3701 </r>
       </set>
       <set comment="band 12">
        <r>  0.0000  0.0000  0.0000  0.0000  0.0000  1.1535  0.0000  0.0000  0.0000 </r>
       </set>
      </set>
      <set comment="kpoint 24">
       <set comment="band 1">
        <r>  0.0212  0.0002  0.0000  0.0882  0.0226  0.0000  0.4975  0.0000  0.2497 </r>
       </set>
       <set comment="band 2">
        <r>  0.0003  0.0264  0.0000  0.0163  0.0083  0.0000  0.3119  0.0000  0.5213 </r>
       </set>
       <set comment="band 3">
        <r>  0.0000  0.0000  0.0437  0.0000  0.0000  0.3360  0.0000  0.5867  0.0000 </r>
       </set>
       <set comment="band 4">
        <r>  0.0204  0.0376  0.0000  0.0072  0.8435  0.0000  0.0521  0.0000  0.0015 </r>
       </set>
       <set comment="band 5">
        <r>  0.0000  0.0000  0.0029  0.0000  0.0000  0.6390  0.0000  0.3457  0.0000 </r>
       </set>
       <set comment="band 6">
        <r>  0.1358  0.0459  0.0000  0.4127  0.0287  0.0000  0.0464  0.0000  0.2259 </r>
       </set>
       <set comment="band 7">
        <r>  0.1271  0.4677  0.0000  0.0000  0.1866  0.0000  0.0607  0.0000  0.0525 </r>
       </set>
       <set comment="band 8">
        <r>  0.0000  0.0000  0.6745  0.0000  0.0000  0.0326  0.0000  0.1672  0.0000 </r>
       </set>
       <set comment="band 9">
        <r>  0.0771  0.0032  0.0000  0.0041  0.0097  0.0000  0.7869  0.0000  0.0218 </r>
       </set>
       <set comment="band 10">
        <r>  0.0775  0.1041  0.0000  0.0004  0.0094  0.0000  0.0001  0.0000  0.6137 </r>
       </set>
       <set comment="band 11">
        <r>  0.2817  0.0652  0.0000  0.2799  0.0144  0.0000  0.0963  0.0000  0.1151 </r>
       </set>
       <set comment="band 12">
        <r>  0.0000  0.0000  0.0704  0.0000  0.0000  0.5706  0.0000  0.2739  0.0000 </r>
       </set>
      </set>
      <set comment="kpoint 25">
       <set comment="band 1">
        <r>  0.0000  0.0200  0.0000  0.0200  0.0000  0.0036  0.0000  0.0036  0.8370 </r>
       </set>
       <set comment="band 2">
        <r>  0.0000  0.0067  0.0267  0.0067  0.0048  0.0012  0.8370  0.0012  0.0000 </r>
       </set>
       <set comment="band 3">
        <r>  0.0179  0.0144  0.0144  0.0144  0.3001  0.3001  0.0000  0.3001  0.0000 </r>
       </set>
       <set comment="band 4">
        <r>  0.0000  0.0037  0.0149  0.0037  0.6292  0.1573  0.0156  0.1573  0.0000 </r>
       </set>
       <set comment="band 5">
        <r>  0.0000  0.0112  0.0000  0.0112  0.0000  0.4719  0.0000  0.4719  0.0156 </r>
       </set>
       <set comment="band 6">
        <r>  0.0000  0.3197  0.0000  0.3197  0.0000  0.0303  0.0000  0.0303  0.1822 </r>
       </set>
       <set comment="band 7">
        <r>  0.0000  0.1066  0.4262  0.1066  0.0405  0.0101  0.1822  0.0101  0.0000 </r>
       </set>
       <set comment="band 8">
        <r>  0.2606  0.1387  0.1387  0.1387  0.0562  0.0562  0.0000  0.0562  0.0000 </r>
       </set>
       <set comment="band 9">
        <r>  0.0000  0.0142  0.0569  0.0142  0.0058  0.0015  0.8289  0.0015  0.0000 </r>
       </set>
       <set comment="band 10">
        <r>  0.0000  0.0427  0.0000  0.0427  0.0000  0.0044  0.0000  0.0044  0.8289 </r>
       </set>
       <set comment="band 11">
        <r>  0.4726  0.1008  0.1008  0.1008  0.0036  0.0036  0.0000  0.0036  0.0000 </r>
       </set>
       <set comment="band 12">
        <r>  0.0372  0.0173  0.0173  0.0173  0.2411  0.2411  0.0000  0.2411  0.0000 </r>
       </set>
      </set>
      <set comment="kpoint 26">
       <set comment="band 1">
        <r>  0.0013  0.0000  0.0000  0.0271  0.0000  0.0000  0.2140  0.0000  0.6419 </r>
       </set>
       <set comment="band 2">
        <r>  0.0000  0.0000  0.0000  0.0000  0.0000  0.0000  0.6643  0.0000  0.2214 </r>
       </set>
       <set comment="band 3">
        <r>  0.0000  0.0115  0.0115  0.0000  0.4786  0.0000  0.0000  0.4787  0.0000 </r>
       </set>
       <set comment="band 4">
        <r>  0.0000  0.0115  0.0115  0.0000  0.4787  0.0000  0.0000  0.4786  0.0000 </r>
       </set>
       <set comment="band 5">
        <r>  0.0000  0.0000  0.0000  0.0000  0.0000  0.9874  0.0000  0.0000  0.0000 </r>
       </set>
       <set comment="band 6">
        <r>  0.0851  0.0000  0.0000  0.6331  0.0000  0.0000  0.0309  0.0000  0.0928 </r>
       </set>
       <set comment="band 7">
        <r>  0.0000  0.3788  0.3788  0.0000  0.0310  0.0000  0.0000  0.0310  0.0000 </r>
       </set>
       <set comment="band 8">
        <r>  0.0000  0.3788  0.3788  0.0000  0.0310  0.0000  0.0000  0.0310  0.0000 </r>
       </set>
       <set comment="band 9">
        <r>  0.0000  0.0000  0.0000  0.0000  0.0000  0.0000  0.7827  0.0000  0.2609 </r>
       </set>
       <set comment="band 10">
        <r>  0.0588  0.0000  0.0000  0.0214  0.0000  0.0000  0.2209  0.0000  0.6628 </r>
       </set>
       <set comment="band 11">
        <r>  0.6306  0.0000  0.0000  0.1222  0.0000  0.0000  0.0110  0.0000  0.0329 </r>
       </set>
       <set comment="band 12">
        <r>  0.0000  0.0000  0.0000  0.0000  0.0000  0.3009  0.0000  0.0000  0.0000 </r>
       </set>
      </set>
     </set>
    </set>
   </array>
  </projected>
 </calculation>
 <structure name="finalpos" >
  <crystal>
   <varray name="basis" >
    <v>      -1.38000000       1.38000000       1.38000000 </v>
    <v>       1.38000000      -1.38000000       1.38000000 </v>
    <v>       1.38000000       1.38000000      -1.38000000 </v>
   </varray>
   <i name="volume">     10.51228800 </i>
   <varray name="rec_basis" >
    <v>       0.00000000       0.36231884       0.36231884 </v>
    <v>       0.36231884       0.00000000       0.36231884 </v>
    <v>       0.36231884       0.36231884       0.00000000 </v>
   </varray>
  </crystal>
  <varray name="positions" >
   <v>       0.00000000       0.00000000       0.00000000 </v>
  </varray>
 </structure>
</modeling>
