Fe BCC                                  
   2.85000000000000     
    -0.500000    0.500000    0.500000
     0.500000   -0.500000    0.500000
     0.500000    0.500000   -0.500000
   Fe
     1
Direct
  0.000000  0.000000  0.000000
 
   28   28   28
  98.226      95.227      86.812      74.512      60.273      45.924      32.877      22.071      14.008      8.7626    
  5.9505      4.7740      4.2490      3.9264      3.8174      3.9264      4.2490      4.7740      5.9505      8.7626    
  14.008      22.071      32.877      45.924      60.273      74.512      86.812      95.227      95.227      94.237    
  87.660      76.730      63.270      49.153      35.911      24.613      15.885      9.9354      6.5276      4.9897    
  4.3659      3.9833      3.8056      3.8413      4.0894      4.5343      5.3518      7.4171      11.620      18.497    
  28.134      40.179      53.861      67.954      80.782      90.436      86.812      87.660      83.163      74.184    
  62.292      49.265      36.660      25.616      16.847      10.658      6.9357      5.1444      4.4251      4.0032    
  3.7699      3.7370      3.9055      4.2696      4.8403      6.1754      9.1908      14.555      22.526      32.929    
  45.173      58.245      70.697      80.782      74.512      76.730      74.184      67.376      57.546      46.262    
  34.997      24.892      16.689      10.750      7.0541      5.1887      4.4184      3.9803      3.7103      3.6216    
  3.7151      3.9908      4.4367      5.2201      7.1172      10.881      16.936      25.294      35.563      46.945    
  58.245      67.954      60.273      63.270      62.292      57.546      49.935      40.746      31.287      22.620    
  15.464      10.194      6.8406      5.0944      4.3456      3.9133      3.6278      3.5012      3.5325      3.7234    
  4.0750      4.5832      5.6225      7.9390      12.084      18.259      26.277      35.563      45.173      53.861    
  45.924      49.153      49.265      46.262      40.746      33.714      26.250      19.282      13.460      9.1308    
  6.3478      4.8739      4.2137      3.8064      3.5254      3.3802      3.3671      3.4862      3.7440      4.1410    
  4.7107      5.9326      8.4149      12.517      18.259      25.294      32.929      40.179      32.877      35.911    
  36.660      34.997      31.287      26.250      20.734      15.498      11.091      7.8077      5.6985      4.5750    
  4.0378      3.6687      3.4084      3.2621      3.2231      3.2888      3.4654      3.7632      4.1812      4.7884    
  6.0489      8.4149      12.084      16.936      22.526      28.134      22.071      24.613      25.616      24.892    
  22.620      19.282      15.498      11.851      8.7692      6.4864      5.0347      4.2576      3.8351      3.5126    
  3.2842      3.1501      3.1015      3.1327      3.2475      3.4574      3.7740      4.1943      4.7884      5.9326    
  7.9390      10.881      14.555      18.497      14.008      15.885      16.847      16.689      15.464      13.460    
  11.091      8.7692      6.8071      5.3697      4.4674      3.9646      3.6230      3.3516      3.1609      3.0473    
  3.0009      3.0142      3.0876      3.2300      3.4554      3.7740      4.1812      4.7107      5.6225      7.1172    
  9.1908      11.620      8.7626      9.9354      10.658      10.750      10.194      9.1308      7.8077      6.4864    
  5.3697      4.5590      4.0423      3.7003      3.4177      3.1981      3.0464      2.9570      2.9199      2.9272    
  2.9768      3.0741      3.2300      3.4574      3.7632      4.1410      4.5832      5.2201      6.1754      7.4171    
  5.9505      6.5276      6.9357      7.0541      6.8406      6.3478      5.6985      5.0347      4.4674      4.0423    
  3.7273      3.4566      3.2319      3.0620      2.9472      2.8818      2.8572      2.8662      2.9054      2.9768    
  3.0876      3.2475      3.4654      3.7440      4.0750      4.4367      4.8403      5.3518      4.7740      4.9897    
  5.1444      5.1887      5.0944      4.8739      4.5750      4.2576      3.9646      3.7003      3.4566      3.2452    
  3.0749      2.9495      2.8676      2.8242      2.8129      2.8280      2.8662      2.9272      3.0142      3.1327    
  3.2888      3.4862      3.7234      3.9908      4.2696      4.5343      4.2490      4.3659      4.4251      4.4184    
  4.3456      4.2137      4.0378      3.8351      3.6230      3.4177      3.2319      3.0749      2.9519      2.8641    
  2.8100      2.7861      2.7883      2.8129      2.8572      2.9199      3.0009      3.1015      3.2231      3.3671    
  3.5325      3.7151      3.9055      4.0894      3.9264      3.9833      4.0032      3.9803      3.9133      3.8064    
  3.6687      3.5126      3.3516      3.1981      3.0620      2.9495      2.8641      2.8063      2.7752      2.7691    
  2.7861      2.8242      2.8818      2.9570      3.0473      3.1501      3.2621      3.3802      3.5012      3.6216    
  3.7370      3.8413      3.8174      3.8056      3.7699      3.7103      3.6278      3.5254      3.4084      3.2842    
  3.1609      3.0464      2.9472      2.8676      2.8100      2.7752      2.7637      2.7752      2.8100      2.8676    
  2.9472      3.0464      3.1609      3.2842      3.4084      3.5254      3.6278      3.7103      3.7699      3.8056    
  3.9264      3.8413      3.7370      3.6216      3.5012      3.3802      3.2621      3.1501      3.0473      2.9570    
  2.8818      2.8242      2.7861      2.7691      2.7752      2.8063      2.8641      2.9495      3.0620      3.1981    
  3.3516      3.5126      3.6687      3.8064      3.9133      3.9803      4.0032      3.9833      4.2490      4.0894    
  3.9055      3.7151      3.5325      3.3671      3.2231      3.1015      3.0009      2.9199      2.8572      2.8129    
  2.7883      2.7861      2.8100      2.8641      2.9519      3.0749      3.2319      3.4177      3.6230      3.8351    
  4.0378      4.2137      4.3456      4.4184      4.4251      4.3659      4.7740      4.5343      4.2696      3.9908    
  3.7234      3.4862      3.2888      3.1327      3.0142      2.9272      2.8662      2.8280      2.8129      2.8242    
  2.8676      2.9495      3.0749      3.2452      3.4566      3.7003      3.9646      4.2576      4.5750      4.8739    
  5.0944      5.1887      5.1444      4.9897      5.9505      5.3518      4.8403      4.4367      4.0750      3.7440    
  3.4654      3.2475      3.0876      2.9768      2.9054      2.8662      2.8572      2.8818      2.9472      3.0620    
  3.2319      3.4566      3.7273      4.0423      4.4674      5.0347      5.6985      6.3478      6.8406      7.0541    
  6.9357      6.5276      8.7626      7.4171      6.1754      5.2201      4.5832      4.1410      3.7632      3.4574    
  3.2300      3.0741      2.9768      2.9272      2.9199      2.9570      3.0464      3.1981      3.4177      3.7003    
  4.0423      4.5590      5.3697      6.4864      7.8077      9.1308      10.194      10.750      10.658      9.9354    
  14.008      11.620      9.1908      7.1172      5.6225      4.7107      4.1812      3.7740      3.4554      3.2300    
  3.0876      3.0142      3.0009      3.0473      3.1609      3.3516      3.6230      3.9646      4.4674      5.3697    
  6.8071      8.7692      11.091      13.460      15.464      16.689      16.847      15.885      22.071      18.497    
  14.555      10.881      7.9390      5.9326      4.7884      4.1943      3.7740      3.4574      3.2475      3.1327    
  3.1015      3.1501      3.2842      3.5126      3.8351      4.2576      5.0347      6.4864      8.7692      11.851    
  15.498      19.282      22.620      24.892      25.616      24.613      32.877      28.134      22.526      16.936    
  12.084      8.4149      6.0489      4.7884      4.1812      3.7632      3.4654      3.2888      3.2231      3.2621    
  3.4084      3.6687      4.0378      4.5750      5.6985      7.8077      11.091      15.498      20.734      26.250    
  31.287      34.997      36.660      35.911      45.924      40.179      32.929      25.294      18.259      12.517    
  8.4149      5.9326      4.7107      4.1410      3.7440      3.4862      3.3671      3.3802      3.5254      3.8064    
  4.2137      4.8739      6.3478      9.1308      13.460      19.282      26.250      33.714      40.746      46.262    
  49.265      49.153      60.273      53.861      45.173      35.563      26.277      18.259      12.084      7.9390    
  5.6225      4.5832      4.0750      3.7234      3.5325      3.5012      3.6278      3.9133      4.3456      5.0944    
  6.8406      10.194      15.464      22.620      31.287      40.746      49.935      57.546      62.292      63.270    
  74.512      67.954      58.245      46.945      35.563      25.294      16.936      10.881      7.1172      5.2201    
  4.4367      3.9908      3.7151      3.6216      3.7103      3.9803      4.4184      5.1887      7.0541      10.750    
  16.689      24.892      34.997      46.262      57.546      67.376      74.184      76.730      86.812      80.782    
  70.697      58.245      45.173      32.929      22.526      14.555      9.1908      6.1754      4.8403      4.2696    
  3.9055      3.7370      3.7699      4.0032      4.4251      5.1444      6.9357      10.658      16.847      25.616    
  36.660      49.265      62.292      74.184      83.163      87.660      95.227      90.436      80.782      67.954    
  53.861      40.179      28.134      18.497      11.620      7.4171      5.3518      4.5343      4.0894      3.8413    
  3.8056      3.9833      4.3659      4.9897      6.5276      9.9354      15.885      24.613      35.911      49.153    
  63.270      76.730      87.660      94.237      95.227      94.237      87.660      76.730      63.270      49.153    
  35.911      24.613      15.885      9.9354      6.5276      4.9897      4.3659      3.9833      3.8056      3.8413    
  4.0894      4.5343      5.3518      7.4171      11.620      18.497      28.134      40.179      53.861      67.954    
  80.782      90.436      94.237      95.227      90.436      80.782      67.954      53.861      40.179      28.134    
  18.497      11.620      7.4171      5.3518      4.5343      4.0894      3.8413      3.8056      3.9833      4.3659    
  4.9897      6.5276      9.9354      15.885      24.613      35.911      49.153      63.270      76.730      87.660    
  87.660      90.436      87.660      79.873      68.488      55.312      42.053      30.035      20.138      12.823    
  8.1319      5.6671      4.6478      4.1558      3.8505      3.7478      3.8505      4.1558      4.6478      5.6671    
  8.1319      12.823      20.138      30.035      42.053      55.312      68.488      79.873      76.730      80.782    
  79.873      74.184      64.780      53.238      41.181      29.946      20.465      13.266      8.4848      5.8463    
  4.6964      4.1721      3.8291      3.6721      3.7045      3.9265      4.3302      4.9766      6.5410      9.8602    
  15.478      23.530      33.740      45.429      57.503      68.488      63.270      67.954      68.488      64.780    
  57.546      48.063      37.765      27.913      19.425      12.851      8.3772      5.8249      4.6634      4.1337    
  3.7750      3.5816      3.5565      3.6997      4.0122      4.4816      5.3627      7.4213      11.305      17.325    
  25.399      35.053      45.429      55.312      49.153      53.861      55.312      53.238      48.063      40.746    
  32.479      24.371      17.266      11.687      7.8364      5.5964      4.5447      4.0427      3.6893      3.4795    
  3.4143      3.4916      3.7155      4.0874      4.6153      5.7183      8.0702      12.122      17.985      25.399    
  33.740      42.053      35.911      40.179      42.053      41.181      37.765      32.479      26.250      19.995    
  14.441      10.047      6.9996      5.2151      4.3571      3.9076      3.5770      3.3694      3.2826      3.3118    
  3.4600      3.7359      4.1398      4.7171      5.9318      8.3081      12.122      17.325      23.530      30.035    
  24.613      28.134      30.035      29.946      27.913      24.371      19.995      15.498      11.463      8.2666    
  6.0585      4.7708      4.1317      3.7420      3.4467      3.2557      3.1637      3.1633      3.2545      3.4466    
  3.7509      4.1659      4.7559      5.9318      8.0702      11.305      15.478      20.138      15.885      18.497    
  20.138      20.465      19.425      17.266      14.441      11.463      8.7692      6.6427      5.1913      4.3499    
  3.8956      3.5612      3.3087      3.1438      3.0589      3.0447      3.0984      3.2265      3.4420      3.7561    
  4.1659      4.7171      5.7183      7.4213      9.8602      12.823      9.9354      11.620      12.823      13.266    
  12.851      11.687      10.047      8.2666      6.6427      5.3697      4.5114      4.0007      3.6594      3.3805    
  3.1736      3.0393      2.9689      2.9525      2.9854      3.0704      3.2181      3.4420      3.7509      4.1398    
  4.6153      5.3627      6.5410      8.1319      6.5276      7.4171      8.1319      8.4848      8.3772      7.8364    
  6.9996      6.0585      5.1913      4.5114      4.0423      3.7136      3.4361      3.2127      3.0506      2.9474    
  2.8945      2.8830      2.9073      2.9676      3.0704      3.2265      3.4466      3.7359      4.0874      4.4816    
  4.9766      5.6671      4.9897      5.3518      5.6671      5.8463      5.8249      5.5964      5.2151      4.7708    
  4.3499      4.0007      3.7136      3.4566      3.2383      3.0674      2.9465      2.8719      2.8367      2.8337    
  2.8577      2.9073      2.9854      3.0984      3.2545      3.4600      3.7155      4.0122      4.3302      4.6478    
  4.3659      4.5343      4.6478      4.6964      4.6634      4.5447      4.3571      4.1317      3.8956      3.6594    
  3.4361      3.2383      3.0749      2.9505      2.8650      2.8155      2.7970      2.8044      2.8337      2.8830    
  2.9525      3.0447      3.1633      3.3118      3.4916      3.6997      3.9265      4.1558      3.9833      4.0894    
  4.1558      4.1721      4.1337      4.0427      3.9076      3.7420      3.5612      3.3805      3.2127      3.0674    
  2.9505      2.8641      2.8079      2.7799      2.7772      2.7970      2.8367      2.8945      2.9689      3.0589    
  3.1637      3.2826      3.4143      3.5565      3.7045      3.8505      3.8056      3.8413      3.8505      3.8291    
  3.7750      3.6893      3.5770      3.4467      3.3087      3.1736      3.0506      2.9465      2.8650      2.8079    
  2.7752      2.7662      2.7799      2.8155      2.8719      2.9474      3.0393      3.1438      3.2557      3.3694    
  3.4795      3.5816      3.6721      3.7478      3.8413      3.8056      3.7478      3.6721      3.5816      3.4795    
  3.3694      3.2557      3.1438      3.0393      2.9474      2.8719      2.8155      2.7799      2.7662      2.7752    
  2.8079      2.8650      2.9465      3.0506      3.1736      3.3087      3.4467      3.5770      3.6893      3.7750    
  3.8291      3.8505      4.0894      3.9833      3.8505      3.7045      3.5565      3.4143      3.2826      3.1637    
  3.0589      2.9689      2.8945      2.8367      2.7970      2.7772      2.7799      2.8079      2.8641      2.9505    
  3.0674      3.2127      3.3805      3.5612      3.7420      3.9076      4.0427      4.1337      4.1721      4.1558    
  4.5343      4.3659      4.1558      3.9265      3.6997      3.4916      3.3118      3.1633      3.0447      2.9525    
  2.8830      2.8337      2.8044      2.7970      2.8155      2.8650      2.9505      3.0749      3.2383      3.4361    
  3.6594      3.8956      4.1317      4.3571      4.5447      4.6634      4.6964      4.6478      5.3518      4.9897    
  4.6478      4.3302      4.0122      3.7155      3.4600      3.2545      3.0984      2.9854      2.9073      2.8577    
  2.8337      2.8367      2.8719      2.9465      3.0674      3.2383      3.4566      3.7136      4.0007      4.3499    
  4.7708      5.2151      5.5964      5.8249      5.8463      5.6671      7.4171      6.5276      5.6671      4.9766    
  4.4816      4.0874      3.7359      3.4466      3.2265      3.0704      2.9676      2.9073      2.8830      2.8945    
  2.9474      3.0506      3.2127      3.4361      3.7136      4.0423      4.5114      5.1913      6.0585      6.9996    
  7.8364      8.3772      8.4848      8.1319      11.620      9.9354      8.1319      6.5410      5.3627      4.6153    
  4.1398      3.7509      3.4420      3.2181      3.0704      2.9854      2.9525      2.9689      3.0393      3.1736    
  3.3805      3.6594      4.0007      4.5114      5.3697      6.6427      8.2666      10.047      11.687      12.851    
  13.266      12.823      18.497      15.885      12.823      9.8602      7.4213      5.7183      4.7171      4.1659    
  3.7561      3.4420      3.2265      3.0984      3.0447      3.0589      3.1438      3.3087      3.5612      3.8956    
  4.3499      5.1913      6.6427      8.7692      11.463      14.441      17.266      19.425      20.465      20.138    
  28.134      24.613      20.138      15.478      11.305      8.0702      5.9318      4.7559      4.1659      3.7509    
  3.4466      3.2545      3.1633      3.1637      3.2557      3.4467      3.7420      4.1317      4.7708      6.0585    
  8.2666      11.463      15.498      19.995      24.371      27.913      29.946      30.035      40.179      35.911    
  30.035      23.530      17.325      12.122      8.3081      5.9318      4.7171      4.1398      3.7359      3.4600    
  3.3118      3.2826      3.3694      3.5770      3.9076      4.3571      5.2151      6.9996      10.047      14.441    
  19.995      26.250      32.479      37.765      41.181      42.053      53.861      49.153      42.053      33.740    
  25.399      17.985      12.122      8.0702      5.7183      4.6153      4.0874      3.7155      3.4916      3.4143    
  3.4795      3.6893      4.0427      4.5447      5.5964      7.8364      11.687      17.266      24.371      32.479    
  40.746      48.063      53.238      55.312      67.954      63.270      55.312      45.429      35.053      25.399    
  17.325      11.305      7.4213      5.3627      4.4816      4.0122      3.6997      3.5565      3.5816      3.7750    
  4.1337      4.6634      5.8249      8.3772      12.851      19.425      27.913      37.765      48.063      57.546    
  64.780      68.488      80.782      76.730      68.488      57.503      45.429      33.740      23.530      15.478    
  9.8602      6.5410      4.9766      4.3302      3.9265      3.7045      3.6721      3.8291      4.1721      4.6964    
  5.8463      8.4848      13.266      20.465      29.946      41.181      53.238      64.780      74.184      79.873    
  90.436      87.660      79.873      68.488      55.312      42.053      30.035      20.138      12.823      8.1319    
  5.6671      4.6478      4.1558      3.8505      3.7478      3.8505      4.1558      4.6478      5.6671      8.1319    
  12.823      20.138      30.035      42.053      55.312      68.488      79.873      87.660      86.812      87.660    
  83.163      74.184      62.292      49.265      36.660      25.616      16.847      10.658      6.9357      5.1444    
  4.4251      4.0032      3.7699      3.7370      3.9055      4.2696      4.8403      6.1754      9.1908      14.555    
  22.526      32.929      45.173      58.245      70.697      80.782      87.660      90.436      87.660      79.873    
  68.488      55.312      42.053      30.035      20.138      12.823      8.1319      5.6671      4.6478      4.1558    
  3.8505      3.7478      3.8505      4.1558      4.6478      5.6671      8.1319      12.823      20.138      30.035    
  42.053      55.312      68.488      79.873      83.163      87.660      86.812      80.782      70.697      58.245    
  45.173      32.929      22.526      14.555      9.1908      6.1754      4.8403      4.2696      3.9055      3.7370    
  3.7699      4.0032      4.4251      5.1444      6.9357      10.658      16.847      25.616      36.660      49.265    
  62.292      74.184      74.184      79.873      80.782      76.730      68.488      57.503      45.429      33.740    
  23.530      15.478      9.8602      6.5410      4.9766      4.3302      3.9265      3.7045      3.6721      3.8291    
  4.1721      4.6964      5.8463      8.4848      13.266      20.465      29.946      41.181      53.238      64.780    
  62.292      68.488      70.697      68.488      62.292      53.238      42.783      32.322      22.951      15.387    
  9.9702      6.6548      5.0161      4.3289      3.9079      3.6501      3.5644      3.6501      3.9079      4.3289    
  5.0161      6.6548      9.9702      15.387      22.951      32.322      42.783      53.238      49.265      55.312    
  58.245      57.503      53.238      46.262      37.765      28.981      20.932      14.318      9.4947      6.4754    
  4.9345      4.2648      3.8478      3.5743      3.4524      3.4792      3.6561      3.9856      4.4579      5.3534    
  7.3651      11.030      16.567      23.833      32.322      41.181      36.660      42.053      45.173      45.429    
  42.783      37.765      31.287      24.371      17.905      12.522      8.5561      6.0463      4.7413      4.1446    
  3.7498      3.4798      3.3399      3.3248      3.4338      3.6736      4.0465      4.5637      5.6145      7.7778    
  11.413      16.567      22.951      29.946      25.616      30.035      32.929      33.740      32.322      28.981    
  24.371      19.282      14.441      10.377      7.3749      5.4749      4.4774      3.9811      3.6222      3.3713    
  3.2301      3.1906      3.2494      3.4124      3.6901      4.0835      4.6271      5.7127      7.7778      11.030    
  15.387      20.465      16.847      20.138      22.526      23.530      22.951      20.932      17.905      14.441    
  11.091      8.2666      6.1910      4.8882      4.1937      3.7906      3.4764      3.2556      3.1258      3.0773    
  3.1040      3.2090      3.4035      3.6993      4.0957      4.6271      5.6145      7.3651      9.9702      13.266    
  10.658      12.823      14.555      15.478      15.387      14.318      12.522      10.377      8.2666      6.4864    
  5.1913      4.3844      3.9246      3.5899      3.3254      3.1405      3.0302      2.9839      2.9940      3.0604    
  3.1917      3.4011      3.6993      4.0835      4.5637      5.3534      6.6548      8.4848      6.9357      8.1319    
  9.1908      9.8602      9.9702      9.4947      8.5561      7.3749      6.1910      5.1913      4.4674      4.0007    
  3.6713      3.3946      3.1809      3.0335      2.9461      2.9088      2.9135      2.9580      3.0472      3.1917    
  3.4035      3.6901      4.0465      4.4579      5.0161      5.8463      5.1444      5.6671      6.1754      6.5410    
  6.6548      6.4754      6.0463      5.4749      4.8882      4.3844      4.0007      3.7003      3.4361      3.2175    
  3.0524      2.9407      2.8764      2.8510      2.8575      2.8926      2.9580      3.0604      3.2090      3.4124    
  3.6736      3.9856      4.3289      4.6964      4.4251      4.6478      4.8403      4.9766      5.0161      4.9345    
  4.7413      4.4774      4.1937      3.9246      3.6713      3.4361      3.2319      3.0674      2.9461      2.8663    
  2.8232      2.8106      2.8231      2.8575      2.9135      2.9940      3.1040      3.2494      3.4338      3.6561    
  3.9079      4.1721      4.0032      4.1558      4.2696      4.3302      4.3289      4.2648      4.1446      3.9811    
  3.7906      3.5899      3.3946      3.2175      3.0674      2.9495      2.8650      2.8124      2.7883      2.7888    
  2.8106      2.8510      2.9088      2.9839      3.0773      3.1906      3.3248      3.4792      3.6501      3.8291    
  3.7699      3.8505      3.9055      3.9265      3.9079      3.8478      3.7498      3.6222      3.4764      3.3254    
  3.1809      3.0524      2.9461      2.8650      2.8100      2.7799      2.7733      2.7883      2.8232      2.8764    
  2.9461      3.0302      3.1258      3.2301      3.3399      3.4524      3.5644      3.6721      3.7370      3.7478    
  3.7370      3.7045      3.6501      3.5743      3.4798      3.3713      3.2556      3.1405      3.0335      2.9407    
  2.8663      2.8124      2.7799      2.7691      2.7799      2.8124      2.8663      2.9407      3.0335      3.1405    
  3.2556      3.3713      3.4798      3.5743      3.6501      3.7045      3.9055      3.8505      3.7699      3.6721    
  3.5644      3.4524      3.3399      3.2301      3.1258      3.0302      2.9461      2.8764      2.8232      2.7883    
  2.7733      2.7799      2.8100      2.8650      2.9461      3.0524      3.1809      3.3254      3.4764      3.6222    
  3.7498      3.8478      3.9079      3.9265      4.2696      4.1558      4.0032      3.8291      3.6501      3.4792    
  3.3248      3.1906      3.0773      2.9839      2.9088      2.8510      2.8106      2.7888      2.7883      2.8124    
  2.8650      2.9495      3.0674      3.2175      3.3946      3.5899      3.7906      3.9811      4.1446      4.2648    
  4.3289      4.3302      4.8403      4.6478      4.4251      4.1721      3.9079      3.6561      3.4338      3.2494    
  3.1040      2.9940      2.9135      2.8575      2.8231      2.8106      2.8232      2.8663      2.9461      3.0674    
  3.2319      3.4361      3.6713      3.9246      4.1937      4.4774      4.7413      4.9345      5.0161      4.9766    
  6.1754      5.6671      5.1444      4.6964      4.3289      3.9856      3.6736      3.4124      3.2090      3.0604    
  2.9580      2.8926      2.8575      2.8510      2.8764      2.9407      3.0524      3.2175      3.4361      3.7003    
  4.0007      4.3844      4.8882      5.4749      6.0463      6.4754      6.6548      6.5410      9.1908      8.1319    
  6.9357      5.8463      5.0161      4.4579      4.0465      3.6901      3.4035      3.1917      3.0472      2.9580    
  2.9135      2.9088      2.9461      3.0335      3.1809      3.3946      3.6713      4.0007      4.4674      5.1913    
  6.1910      7.3749      8.5561      9.4947      9.9702      9.8602      14.555      12.823      10.658      8.4848    
  6.6548      5.3534      4.5637      4.0835      3.6993      3.4011      3.1917      3.0604      2.9940      2.9839    
  3.0302      3.1405      3.3254      3.5899      3.9246      4.3844      5.1913      6.4864      8.2666      10.377    
  12.522      14.318      15.387      15.478      22.526      20.138      16.847      13.266      9.9702      7.3651    
  5.6145      4.6271      4.0957      3.6993      3.4035      3.2090      3.1040      3.0773      3.1258      3.2556    
  3.4764      3.7906      4.1937      4.8882      6.1910      8.2666      11.091      14.441      17.905      20.932    
  22.951      23.530      32.929      30.035      25.616      20.465      15.387      11.030      7.7778      5.7127    
  4.6271      4.0835      3.6901      3.4124      3.2494      3.1906      3.2301      3.3713      3.6222      3.9811    
  4.4774      5.4749      7.3749      10.377      14.441      19.282      24.371      28.981      32.322      33.740    
  45.173      42.053      36.660      29.946      22.951      16.567      11.413      7.7778      5.6145      4.5637    
  4.0465      3.6736      3.4338      3.3248      3.3399      3.4798      3.7498      4.1446      4.7413      6.0463    
  8.5561      12.522      17.905      24.371      31.287      37.765      42.783      45.429      58.245      55.312    
  49.265      41.181      32.322      23.833      16.567      11.030      7.3651      5.3534      4.4579      3.9856    
  3.6561      3.4792      3.4524      3.5743      3.8478      4.2648      4.9345      6.4754      9.4947      14.318    
  20.932      28.981      37.765      46.262      53.238      57.503      70.697      68.488      62.292      53.238    
  42.783      32.322      22.951      15.387      9.9702      6.6548      5.0161      4.3289      3.9079      3.6501    
  3.5644      3.6501      3.9079      4.3289      5.0161      6.6548      9.9702      15.387      22.951      32.322    
  42.783      53.238      62.292      68.488      80.782      79.873      74.184      64.780      53.238      41.181    
  29.946      20.465      13.266      8.4848      5.8463      4.6964      4.1721      3.8291      3.6721      3.7045    
  3.9265      4.3302      4.9766      6.5410      9.8602      15.478      23.530      33.740      45.429      57.503    
  68.488      76.730      74.512      76.730      74.184      67.376      57.546      46.262      34.997      24.892    
  16.689      10.750      7.0541      5.1887      4.4184      3.9803      3.7103      3.6216      3.7151      3.9908    
  4.4367      5.2201      7.1172      10.881      16.936      25.294      35.563      46.945      58.245      67.954    
  76.730      80.782      79.873      74.184      64.780      53.238      41.181      29.946      20.465      13.266    
  8.4848      5.8463      4.6964      4.1721      3.8291      3.6721      3.7045      3.9265      4.3302      4.9766    
  6.5410      9.8602      15.478      23.530      33.740      45.429      57.503      68.488      74.184      79.873    
  80.782      76.730      68.488      57.503      45.429      33.740      23.530      15.478      9.8602      6.5410    
  4.9766      4.3302      3.9265      3.7045      3.6721      3.8291      4.1721      4.6964      5.8463      8.4848    
  13.266      20.465      29.946      41.181      53.238      64.780      67.376      74.184      76.730      74.512    
  67.954      58.245      46.945      35.563      25.294      16.936      10.881      7.1172      5.2201      4.4367    