Fe BCC                                  
   2.85000000000000     
    -0.500000    0.500000    0.500000
     0.500000   -0.500000    0.500000
     0.500000    0.500000   -0.500000
   Fe
     1
Direct
  0.000000  0.000000  0.000000
 
   28   28   28
 0.98226347838E+02 0.95226775896E+02 0.86812150138E+02 0.74512069510E+02 0.60272505349E+02
 0.45923612042E+02 0.32877449516E+02 0.22071170814E+02 0.14008109329E+02 0.87625859755E+01
 0.59505372294E+01 0.47740227839E+01 0.42490152783E+01 0.39264337544E+01 0.38174355326E+01
 0.39264337544E+01 0.42490152783E+01 0.47740227839E+01 0.59505372294E+01 0.87625859755E+01
 0.14008109329E+02 0.22071170814E+02 0.32877449516E+02 0.45923612042E+02 0.60272505349E+02
 0.74512069510E+02 0.86812150138E+02 0.95226775896E+02 0.95226775896E+02 0.94236813487E+02
 0.87660410525E+02 0.76729653580E+02 0.63270463722E+02 0.49153439220E+02 0.35911366552E+02
 0.24612640682E+02 0.15884674000E+02 0.99353551448E+01 0.65276212813E+01 0.49896923408E+01
 0.43659301541E+01 0.39832509256E+01 0.38055758162E+01 0.38413168935E+01 0.40894129379E+01
 0.45342700015E+01 0.53517625675E+01 0.74170544337E+01 0.11620333886E+02 0.18497416373E+02
 0.28133768395E+02 0.40179089932E+02 0.53861438278E+02 0.67953540467E+02 0.80781973332E+02
 0.90435899852E+02 0.86812150138E+02 0.87660410525E+02 0.83163491644E+02 0.74183742759E+02
 0.62292434270E+02 0.49265404321E+02 0.36659521330E+02 0.25616465269E+02 0.16847324576E+02
 0.10657888621E+02 0.69357197584E+01 0.51444159919E+01 0.44251352224E+01 0.40031687861E+01
 0.37698659868E+01 0.37370465888E+01 0.39054652131E+01 0.42696086357E+01 0.48402656839E+01
 0.61753950319E+01 0.91908219897E+01 0.14554969009E+02 0.22526085405E+02 0.32928628911E+02
 0.45173105022E+02 0.58244588052E+02 0.70696573400E+02 0.80781973332E+02 0.74512069510E+02
 0.76729653580E+02 0.74183742759E+02 0.67375633653E+02 0.57546300206E+02 0.46261781853E+02
 0.34997087906E+02 0.24891874212E+02 0.16689134678E+02 0.10750274408E+02 0.70540782512E+01
 0.51886836814E+01 0.44183894567E+01 0.39802952360E+01 0.37102849917E+01 0.36216303985E+01
 0.37150509772E+01 0.39907978604E+01 0.44366597862E+01 0.52201413308E+01 0.71171522493E+01
 0.10881232136E+02 0.16935688052E+02 0.25294341115E+02 0.35562785792E+02 0.46944666223E+02
 0.58244588052E+02 0.67953540467E+02 0.60272505349E+02 0.63270463722E+02 0.62292434270E+02
 0.57546300206E+02 0.49934602409E+02 0.40746208511E+02 0.31287159259E+02 0.22619999230E+02
 0.15464345997E+02 0.10193594326E+02 0.68405641587E+01 0.50944445382E+01 0.43455529142E+01
 0.39133219178E+01 0.36278281165E+01 0.35011964159E+01 0.35325004460E+01 0.37234287574E+01
 0.40749923844E+01 0.45832218616E+01 0.56224957374E+01 0.79390032528E+01 0.12083889186E+02
 0.18259025568E+02 0.26276683710E+02 0.35562785792E+02 0.45173105022E+02 0.53861438278E+02
 0.45923612042E+02 0.49153439220E+02 0.49265404321E+02 0.46261781853E+02 0.40746208511E+02
 0.33713809900E+02 0.26249960942E+02 0.19282419539E+02 0.13460092289E+02 0.91307808357E+01
 0.63478446096E+01 0.48739264702E+01 0.42137099819E+01 0.38063993183E+01 0.35254413772E+01
 0.33801888865E+01 0.33670719164E+01 0.34861935260E+01 0.37440277489E+01 0.41410484447E+01
 0.47107424710E+01 0.59325765519E+01 0.84149321375E+01 0.12517428800E+02 0.18259025568E+02
 0.25294341115E+02 0.32928628911E+02 0.40179089932E+02 0.32877449516E+02 0.35911366552E+02
 0.36659521330E+02 0.34997087906E+02 0.31287159259E+02 0.26249960942E+02 0.20733562314E+02
 0.15498284449E+02 0.11090853578E+02 0.78077037978E+01 0.56985156161E+01 0.45749733657E+01
 0.40377940317E+01 0.36686595760E+01 0.34084455762E+01 0.32620806119E+01 0.32231274332E+01
 0.32887772125E+01 0.34654018168E+01 0.37632255314E+01 0.41811596494E+01 0.47883706450E+01
 0.60489212544E+01 0.84149321375E+01 0.12083889186E+02 0.16935688052E+02 0.22526085405E+02
 0.28133768395E+02 0.22071170814E+02 0.24612640682E+02 0.25616465269E+02 0.24891874212E+02
 0.22619999230E+02 0.19282419539E+02 0.15498284449E+02 0.11850559432E+02 0.87691985374E+01
 0.64864014453E+01 0.50347484995E+01 0.42575651392E+01 0.38350721332E+01 0.35125526039E+01
 0.32841651143E+01 0.31500554641E+01 0.31014526062E+01 0.31327345810E+01 0.32474889682E+01
 0.34574143847E+01 0.37739740708E+01 0.41943480947E+01 0.47883706450E+01 0.59325765519E+01
 0.79390032528E+01 0.10881232136E+02 0.14554969009E+02 0.18497416373E+02 0.14008109329E+02
 0.15884674000E+02 0.16847324576E+02 0.16689134678E+02 0.15464345997E+02 0.13460092289E+02
 0.11090853578E+02 0.87691985374E+01 0.68071259422E+01 0.53697041766E+01 0.44673871580E+01
 0.39646114951E+01 0.36230419487E+01 0.33515789207E+01 0.31608671034E+01 0.30473096519E+01
 0.30009145805E+01 0.30142188172E+01 0.30875847062E+01 0.32300363187E+01 0.34554209781E+01
 0.37739740708E+01 0.41811596494E+01 0.47107424710E+01 0.56224957374E+01 0.71171522493E+01
 0.91908219897E+01 0.11620333886E+02 0.87625859755E+01 0.99353551448E+01 0.10657888621E+02
 0.10750274408E+02 0.10193594326E+02 0.91307808357E+01 0.78077037978E+01 0.64864014453E+01
 0.53697041766E+01 0.45590219993E+01 0.40423368715E+01 0.37002943950E+01 0.34176773538E+01
 0.31981290661E+01 0.30464286002E+01 0.29569630242E+01 0.29198818686E+01 0.29271933128E+01
 0.29768301791E+01 0.30740556392E+01 0.32300363187E+01 0.34574143847E+01 0.37632255314E+01
 0.41410484447E+01 0.45832218616E+01 0.52201413308E+01 0.61753950319E+01 0.74170544337E+01
 0.59505372294E+01 0.65276212813E+01 0.69357197584E+01 0.70540782512E+01 0.68405641587E+01
 0.63478446096E+01 0.56985156161E+01 0.50347484995E+01 0.44673871580E+01 0.40423368715E+01
 0.37273436182E+01 0.34566489920E+01 0.32319167363E+01 0.30619618966E+01 0.29472298299E+01
 0.28818149606E+01 0.28572192670E+01 0.28661607407E+01 0.29053557741E+01 0.29768301791E+01
 0.30875847062E+01 0.32474889682E+01 0.34654018168E+01 0.37440277489E+01 0.40749923844E+01
 0.44366597862E+01 0.48402656839E+01 0.53517625675E+01 0.47740227839E+01 0.49896923408E+01
 0.51444159919E+01 0.51886836814E+01 0.50944445382E+01 0.48739264702E+01 0.45749733657E+01
 0.42575651392E+01 0.39646114951E+01 0.37002943950E+01 0.34566489920E+01 0.32452043852E+01
 0.30749319253E+01 0.29495306167E+01 0.28676121096E+01 0.28241993052E+01 0.28128967629E+01
 0.28280093746E+01 0.28661607407E+01 0.29271933128E+01 0.30142188172E+01 0.31327345810E+01
 0.32887772125E+01 0.34861935260E+01 0.37234287574E+01 0.39907978604E+01 0.42696086357E+01
 0.45342700015E+01 0.42490152783E+01 0.43659301541E+01 0.44251352224E+01 0.44183894567E+01
 0.43455529142E+01 0.42137099819E+01 0.40377940317E+01 0.38350721332E+01 0.36230419487E+01
 0.34176773538E+01 0.32319167363E+01 0.30749319253E+01 0.29518660780E+01 0.28640836930E+01
 0.28099622118E+01 0.27860504533E+01 0.27882702126E+01 0.28128967629E+01 0.28572192670E+01
 0.29198818686E+01 0.30009145805E+01 0.31014526062E+01 0.32231274332E+01 0.33670719164E+01
 0.35325004460E+01 0.37150509772E+01 0.39054652131E+01 0.40894129379E+01 0.39264337544E+01
 0.39832509256E+01 0.40031687861E+01 0.39802952360E+01 0.39133219178E+01 0.38063993183E+01
 0.36686595760E+01 0.35125526039E+01 0.33515789207E+01 0.31981290661E+01 0.30619618966E+01
 0.29495306167E+01 0.28640836930E+01 0.28063103291E+01 0.27752423869E+01 0.27691275461E+01
 0.27860504533E+01 0.28241993052E+01 0.28818149606E+01 0.29569630242E+01 0.30473096519E+01
 0.31500554641E+01 0.32620806119E+01 0.33801888865E+01 0.35011964159E+01 0.36216303985E+01
 0.37370465888E+01 0.38413168935E+01 0.38174355326E+01 0.38055758162E+01 0.37698659868E+01
 0.37102849917E+01 0.36278281165E+01 0.35254413772E+01 0.34084455762E+01 0.32841651143E+01
 0.31608671034E+01 0.30464286002E+01 0.29472298299E+01 0.28676121096E+01 0.28099622118E+01
 0.27752423869E+01 0.27636676102E+01 0.27752423869E+01 0.28099622118E+01 0.28676121096E+01
 0.29472298299E+01 0.30464286002E+01 0.31608671034E+01 0.32841651143E+01 0.34084455762E+01
 0.35254413772E+01 0.36278281165E+01 0.37102849917E+01 0.37698659868E+01 0.38055758162E+01
 0.39264337544E+01 0.38413168935E+01 0.37370465888E+01 0.36216303985E+01 0.35011964159E+01
 0.33801888865E+01 0.32620806119E+01 0.31500554641E+01 0.30473096519E+01 0.29569630242E+01
 0.28818149606E+01 0.28241993052E+01 0.27860504533E+01 0.27691275461E+01 0.27752423869E+01
 0.28063103291E+01 0.28640836930E+01 0.29495306167E+01 0.30619618966E+01 0.31981290661E+01
 0.33515789207E+01 0.35125526039E+01 0.36686595760E+01 0.38063993183E+01 0.39133219178E+01
 0.39802952360E+01 0.40031687861E+01 0.39832509256E+01 0.42490152783E+01 0.40894129379E+01
 0.39054652131E+01 0.37150509772E+01 0.35325004460E+01 0.33670719164E+01 0.32231274332E+01
 0.31014526062E+01 0.30009145805E+01 0.29198818686E+01 0.28572192670E+01 0.28128967629E+01
 0.27882702126E+01 0.27860504533E+01 0.28099622118E+01 0.28640836930E+01 0.29518660780E+01
 0.30749319253E+01 0.32319167363E+01 0.34176773538E+01 0.36230419487E+01 0.38350721332E+01
 0.40377940317E+01 0.42137099819E+01 0.43455529142E+01 0.44183894567E+01 0.44251352224E+01
 0.43659301541E+01 0.47740227839E+01 0.45342700015E+01 0.42696086357E+01 0.39907978604E+01
 0.37234287574E+01 0.34861935260E+01 0.32887772125E+01 0.31327345810E+01 0.30142188172E+01
 0.29271933128E+01 0.28661607407E+01 0.28280093746E+01 0.28128967629E+01 0.28241993052E+01
 0.28676121096E+01 0.29495306167E+01 0.30749319253E+01 0.32452043852E+01 0.34566489920E+01
 0.37002943950E+01 0.39646114951E+01 0.42575651392E+01 0.45749733657E+01 0.48739264702E+01
 0.50944445382E+01 0.51886836814E+01 0.51444159919E+01 0.49896923408E+01 0.59505372294E+01
 0.53517625675E+01 0.48402656839E+01 0.44366597862E+01 0.40749923844E+01 0.37440277489E+01
 0.34654018168E+01 0.32474889682E+01 0.30875847062E+01 0.29768301791E+01 0.29053557741E+01
 0.28661607407E+01 0.28572192670E+01 0.28818149606E+01 0.29472298299E+01 0.30619618966E+01
 0.32319167363E+01 0.34566489920E+01 0.37273436182E+01 0.40423368715E+01 0.44673871580E+01
 0.50347484995E+01 0.56985156161E+01 0.63478446096E+01 0.68405641587E+01 0.70540782512E+01
 0.69357197584E+01 0.65276212813E+01 0.87625859755E+01 0.74170544337E+01 0.61753950319E+01
 0.52201413308E+01 0.45832218616E+01 0.41410484447E+01 0.37632255314E+01 0.34574143847E+01
 0.32300363187E+01 0.30740556392E+01 0.29768301791E+01 0.29271933128E+01 0.29198818686E+01
 0.29569630242E+01 0.30464286002E+01 0.31981290661E+01 0.34176773538E+01 0.37002943950E+01
 0.40423368715E+01 0.45590219993E+01 0.53697041766E+01 0.64864014453E+01 0.78077037978E+01
 0.91307808357E+01 0.10193594326E+02 0.10750274408E+02 0.10657888621E+02 0.99353551448E+01
 0.14008109329E+02 0.11620333886E+02 0.91908219897E+01 0.71171522493E+01 0.56224957374E+01
 0.47107424710E+01 0.41811596494E+01 0.37739740708E+01 0.34554209781E+01 0.32300363187E+01
 0.30875847062E+01 0.30142188172E+01 0.30009145805E+01 0.30473096519E+01 0.31608671034E+01
 0.33515789207E+01 0.36230419487E+01 0.39646114951E+01 0.44673871580E+01 0.53697041766E+01
 0.68071259422E+01 0.87691985374E+01 0.11090853578E+02 0.13460092289E+02 0.15464345997E+02
 0.16689134678E+02 0.16847324576E+02 0.15884674000E+02 0.22071170814E+02 0.18497416373E+02
 0.14554969009E+02 0.10881232136E+02 0.79390032528E+01 0.59325765519E+01 0.47883706450E+01
 0.41943480947E+01 0.37739740708E+01 0.34574143847E+01 0.32474889682E+01 0.31327345810E+01
 0.31014526062E+01 0.31500554641E+01 0.32841651143E+01 0.35125526039E+01 0.38350721332E+01
 0.42575651392E+01 0.50347484995E+01 0.64864014453E+01 0.87691985374E+01 0.11850559432E+02
 0.15498284449E+02 0.19282419539E+02 0.22619999230E+02 0.24891874212E+02 0.25616465269E+02
 0.24612640682E+02 0.32877449516E+02 0.28133768395E+02 0.22526085405E+02 0.16935688052E+02
 0.12083889186E+02 0.84149321375E+01 0.60489212544E+01 0.47883706450E+01 0.41811596494E+01
 0.37632255314E+01 0.34654018168E+01 0.32887772125E+01 0.32231274332E+01 0.32620806119E+01
 0.34084455762E+01 0.36686595760E+01 0.40377940317E+01 0.45749733657E+01 0.56985156161E+01
 0.78077037978E+01 0.11090853578E+02 0.15498284449E+02 0.20733562314E+02 0.26249960942E+02
 0.31287159259E+02 0.34997087906E+02 0.36659521330E+02 0.35911366552E+02 0.45923612042E+02
 0.40179089932E+02 0.32928628911E+02 0.25294341115E+02 0.18259025568E+02 0.12517428800E+02
 0.84149321375E+01 0.59325765519E+01 0.47107424710E+01 0.41410484447E+01 0.37440277489E+01
 0.34861935260E+01 0.33670719164E+01 0.33801888865E+01 0.35254413772E+01 0.38063993183E+01
 0.42137099819E+01 0.48739264702E+01 0.63478446096E+01 0.91307808357E+01 0.13460092289E+02
 0.19282419539E+02 0.26249960942E+02 0.33713809900E+02 0.40746208511E+02 0.46261781853E+02
 0.49265404321E+02 0.49153439220E+02 0.60272505349E+02 0.53861438278E+02 0.45173105022E+02
 0.35562785792E+02 0.26276683710E+02 0.18259025568E+02 0.12083889186E+02 0.79390032528E+01
 0.56224957374E+01 0.45832218616E+01 0.40749923844E+01 0.37234287574E+01 0.35325004460E+01
 0.35011964159E+01 0.36278281165E+01 0.39133219178E+01 0.43455529142E+01 0.50944445382E+01
 0.68405641587E+01 0.10193594326E+02 0.15464345997E+02 0.22619999230E+02 0.31287159259E+02
 0.40746208511E+02 0.49934602409E+02 0.57546300206E+02 0.62292434270E+02 0.63270463722E+02
 0.74512069510E+02 0.67953540467E+02 0.58244588052E+02 0.46944666223E+02 0.35562785792E+02
 0.25294341115E+02 0.16935688052E+02 0.10881232136E+02 0.71171522493E+01 0.52201413308E+01
 0.44366597862E+01 0.39907978604E+01 0.37150509772E+01 0.36216303985E+01 0.37102849917E+01
 0.39802952360E+01 0.44183894567E+01 0.51886836814E+01 0.70540782512E+01 0.10750274408E+02
 0.16689134678E+02 0.24891874212E+02 0.34997087906E+02 0.46261781853E+02 0.57546300206E+02
 0.67375633653E+02 0.74183742759E+02 0.76729653580E+02 0.86812150138E+02 0.80781973332E+02
 0.70696573400E+02 0.58244588052E+02 0.45173105022E+02 0.32928628911E+02 0.22526085405E+02
 0.14554969009E+02 0.91908219897E+01 0.61753950319E+01 0.48402656839E+01 0.42696086357E+01
 0.39054652131E+01 0.37370465888E+01 0.37698659868E+01 0.40031687861E+01 0.44251352224E+01
 0.51444159919E+01 0.69357197584E+01 0.10657888621E+02 0.16847324576E+02 0.25616465269E+02
 0.36659521330E+02 0.49265404321E+02 0.62292434270E+02 0.74183742759E+02 0.83163491644E+02
 0.87660410525E+02 0.95226775896E+02 0.90435899852E+02 0.80781973332E+02 0.67953540467E+02
 0.53861438278E+02 0.40179089932E+02 0.28133768395E+02 0.18497416373E+02 0.11620333886E+02
 0.74170544337E+01 0.53517625675E+01 0.45342700015E+01 0.40894129379E+01 0.38413168935E+01
 0.38055758162E+01 0.39832509256E+01 0.43659301541E+01 0.49896923408E+01 0.65276212813E+01
 0.99353551448E+01 0.15884674000E+02 0.24612640682E+02 0.35911366552E+02 0.49153439220E+02
 0.63270463722E+02 0.76729653580E+02 0.87660410525E+02 0.94236813487E+02 0.95226775896E+02
 0.94236813487E+02 0.87660410525E+02 0.76729653580E+02 0.63270463722E+02 0.49153439220E+02
 0.35911366552E+02 0.24612640682E+02 0.15884674000E+02 0.99353551448E+01 0.65276212813E+01
 0.49896923408E+01 0.43659301541E+01 0.39832509256E+01 0.38055758162E+01 0.38413168935E+01
 0.40894129379E+01 0.45342700015E+01 0.53517625675E+01 0.74170544337E+01 0.11620333886E+02
 0.18497416373E+02 0.28133768395E+02 0.40179089932E+02 0.53861438278E+02 0.67953540467E+02
 0.80781973332E+02 0.90435899852E+02 0.94236813487E+02 0.95226775649E+02 0.90435899397E+02
 0.80781972743E+02 0.67953539835E+02 0.53861437684E+02 0.40179089432E+02 0.28133768010E+02
 0.18497416095E+02 0.11620333689E+02 0.74170542890E+01 0.53517624559E+01 0.45342699172E+01
 0.40894128849E+01 0.38413168783E+01 0.38055758414E+01 0.39832509881E+01 0.43659302484E+01
 0.49896924663E+01 0.65276214479E+01 0.99353553730E+01 0.15884674314E+02 0.24612641095E+02
 0.35911367056E+02 0.49153439773E+02 0.63270464255E+02 0.76729654006E+02 0.87660410764E+02
 0.87660410525E+02 0.90435899397E+02 0.87660410157E+02 0.79873106996E+02 0.68488389013E+02
 0.55312242591E+02 0.42052583007E+02 0.30034808432E+02 0.20138250129E+02 0.12823281791E+02
 0.81319340513E+01 0.56670920286E+01 0.46477612525E+01 0.41557646590E+01 0.38505067849E+01
 0.37478178430E+01 0.38505068460E+01 0.41557647737E+01 0.46477614136E+01 0.56670922398E+01
 0.81319343340E+01 0.12823282181E+02 0.20138250664E+02 0.30034809129E+02 0.42052583842E+02
 0.55312243491E+02 0.68488389862E+02 0.79873107663E+02 0.76729653580E+02 0.80781972743E+02
 0.79873106996E+02 0.74183742456E+02 0.64780028731E+02 0.53238443093E+02 0.41181224114E+02
 0.29946162208E+02 0.20464921071E+02 0.13266177415E+02 0.84847895796E+01 0.58462533189E+01
 0.46963529967E+01 0.41720856456E+01 0.38290901587E+01 0.36720626038E+01 0.37045375823E+01
 0.39265365264E+01 0.43301923990E+01 0.49766059332E+01 0.65410131401E+01 0.98601887483E+01
 0.15477609723E+02 0.23530105940E+02 0.33740395426E+02 0.45428824618E+02 0.57502525470E+02
 0.68488389649E+02 0.63270463722E+02 0.67953539835E+02 0.68488389013E+02 0.64780028731E+02
 0.57546300104E+02 0.48062608968E+02 0.37764747248E+02 0.27912684180E+02 0.19425033393E+02
 0.12850647871E+02 0.83772245276E+01 0.58248861025E+01 0.46634128927E+01 0.41336749716E+01
 0.37749556132E+01 0.35816124798E+01 0.35565163864E+01 0.36997183615E+01 0.40122038086E+01
 0.44816140215E+01 0.53626681611E+01 0.74213071217E+01 0.11305301227E+02 0.17325285774E+02
 0.25398933786E+02 0.35052926306E+02 0.45428824447E+02 0.55312243127E+02 0.49153439220E+02
 0.53861437684E+02 0.55312242591E+02 0.53238443093E+02 0.48062608968E+02 0.40746208632E+02
 0.32478914416E+02 0.24370652904E+02 0.17265895647E+02 0.11687147897E+02 0.78363605129E+01
 0.55963952795E+01 0.45446584326E+01 0.40426517577E+01 0.36892652069E+01 0.34795345781E+01
 0.34143060347E+01 0.34916465274E+01 0.37155463313E+01 0.40873793888E+01 0.46152686125E+01
 0.57182591231E+01 0.80701767812E+01 0.12121865394E+02 0.17984579266E+02 0.25398933670E+02
 0.33740395153E+02 0.42052583409E+02 0.35911366552E+02 0.40179089432E+02 0.42052583007E+02
 0.41181224114E+02 0.37764747248E+02 0.32478914416E+02 0.26249961200E+02 0.19995407666E+02
 0.14441233508E+02 0.10047388141E+02 0.69995724386E+01 0.52150865588E+01 0.43570738728E+01
 0.39076320908E+01 0.35770421763E+01 0.33693877464E+01 0.32825772922E+01 0.33118089229E+01
 0.34600333079E+01 0.37359373425E+01 0.41398347439E+01 0.47171450749E+01 0.59317728803E+01
 0.83080790880E+01 0.12121865335E+02 0.17325285609E+02 0.23530105641E+02 0.30034808703E+02
 0.24612640682E+02 0.28133768010E+02 0.30034808432E+02 0.29946162208E+02 0.27912684180E+02
 0.24370652904E+02 0.19995407666E+02 0.15498284719E+02 0.11463368269E+02 0.82665508983E+01
 0.60584601734E+01 0.47707837334E+01 0.41317042864E+01 0.37419636297E+01 0.34467068299E+01
 0.32556840924E+01 0.31637187517E+01 0.31633023639E+01 0.32545173896E+01 0.34466177385E+01
 0.37508594706E+01 0.41658609176E+01 0.47559429327E+01 0.59317728663E+01 0.80701767149E+01
 0.11305301071E+02 0.15477609456E+02 0.20138250299E+02 0.15884674000E+02 0.18497416095E+02
 0.20138250129E+02 0.20464921071E+02 0.19425033393E+02 0.17265895647E+02 0.14441233508E+02
 0.11463368269E+02 0.87691987247E+01 0.66426545229E+01 0.51912809980E+01 0.43498770839E+01
 0.38955879586E+01 0.35611772265E+01 0.33086902256E+01 0.31437893501E+01 0.30589065687E+01
 0.30447325805E+01 0.30984137701E+01 0.32264581392E+01 0.34419587968E+01 0.37561370364E+01
 0.41658609273E+01 0.47171450746E+01 0.57182590806E+01 0.74213070052E+01 0.98601885423E+01
 0.12823281899E+02 0.99353551448E+01 0.11620333689E+02 0.12823281791E+02 0.13266177415E+02
 0.12850647871E+02 0.11687147897E+02 0.10047388141E+02 0.82665508983E+01 0.66426545229E+01
 0.53697042519E+01 0.45114320057E+01 0.40006948851E+01 0.36594293711E+01 0.33804561565E+01
 0.31736152649E+01 0.30393181872E+01 0.29689016764E+01 0.29525375312E+01 0.29853653612E+01
 0.30704292264E+01 0.32181225808E+01 0.34419588095E+01 0.37508594944E+01 0.41398347628E+01
 0.46152685997E+01 0.53626680898E+01 0.65410129971E+01 0.81319341299E+01 0.65276212813E+01
 0.74170542890E+01 0.81319340513E+01 0.84847895796E+01 0.83772245276E+01 0.78363605129E+01
 0.69995724386E+01 0.60584601734E+01 0.51912809980E+01 0.45114320057E+01 0.40423368619E+01
 0.37135832295E+01 0.34360752158E+01 0.32127067880E+01 0.30506479645E+01 0.29473515356E+01
 0.28944906612E+01 0.28830082172E+01 0.29073034801E+01 0.29676298583E+01 0.30704292300E+01
 0.32264581548E+01 0.34466177658E+01 0.37359373692E+01 0.40873793932E+01 0.44816139812E+01
 0.49766058365E+01 0.56670920941E+01 0.49896923408E+01 0.53517624559E+01 0.56670920286E+01
 0.58462533189E+01 0.58248861025E+01 0.55963952795E+01 0.52150865588E+01 0.47707837334E+01
 0.43498770839E+01 0.40006948851E+01 0.37135832295E+01 0.34566489461E+01 0.32382834415E+01
 0.30674470031E+01 0.29464701581E+01 0.28718523889E+01 0.28367074125E+01 0.28337258923E+01
 0.28577257882E+01 0.29073034741E+01 0.29853653572E+01 0.30984137756E+01 0.32545174055E+01
 0.34600333255E+01 0.37155463342E+01 0.40122037795E+01 0.43301923281E+01 0.46477613053E+01
 0.43659301541E+01 0.45342699172E+01 0.46477612525E+01 0.46963529967E+01 0.46634128927E+01
 0.45446584326E+01 0.43570738728E+01 0.41317042864E+01 0.38955879586E+01 0.36594293711E+01
 0.34360752158E+01 0.32382834415E+01 0.30749318807E+01 0.29504616205E+01 0.28650290789E+01
 0.28155005521E+01 0.27969784850E+01 0.28043792998E+01 0.28337258835E+01 0.28830082013E+01
 0.29525375143E+01 0.30447325689E+01 0.31633023594E+01 0.33118089205E+01 0.34916465163E+01
 0.36997183300E+01 0.39265364676E+01 0.41557646904E+01 0.39832509256E+01 0.40894128849E+01
 0.41557646590E+01 0.41720856456E+01 0.41336749716E+01 0.40426517577E+01 0.39076320908E+01
 0.37419636297E+01 0.35611772265E+01 0.33804561565E+01 0.32127067880E+01 0.30674470031E+01
 0.29504616205E+01 0.28640836628E+01 0.28079386367E+01 0.27799348614E+01 0.27772334326E+01
 0.27969784808E+01 0.28367074001E+01 0.28944906406E+01 0.29689016511E+01 0.30589065432E+01
 0.31637187283E+01 0.32825772695E+01 0.34143060081E+01 0.35565163502E+01 0.37045375332E+01
 0.38505067862E+01 0.38055758162E+01 0.38413168783E+01 0.38505067849E+01 0.38290901587E+01
 0.37749556132E+01 0.36892652069E+01 0.35770421763E+01 0.34467068299E+01 0.33086902256E+01
 0.31736152649E+01 0.30506479645E+01 0.29464701581E+01 0.28650290789E+01 0.28079386367E+01
 0.27752423672E+01 0.27662141137E+01 0.27799348641E+01 0.28155005529E+01 0.28718523835E+01
 0.29473515217E+01 0.30393181646E+01 0.31437893207E+01 0.32556840589E+01 0.33693877110E+01
 0.34795345424E+01 0.35816124445E+01 0.36720625697E+01 0.37478178117E+01 0.38413168935E+01
 0.38055758414E+01 0.37478178430E+01 0.36720626038E+01 0.35816124798E+01 0.34795345781E+01
 0.33693877464E+01 0.32556840924E+01 0.31437893501E+01 0.30393181872E+01 0.29473515356E+01
 0.28718523889E+01 0.28155005521E+01 0.27799348614E+01 0.27662141137E+01 0.27752423731E+01
 0.28079386486E+01 0.28650290937E+01 0.29464701702E+01 0.30506479676E+01 0.31736152544E+01
 0.33086902003E+01 0.34467067929E+01 0.35770421340E+01 0.36892651674E+01 0.37749555839E+01
 0.38290901441E+01 0.38505067862E+01 0.40894129379E+01 0.39832509881E+01 0.38505068460E+01
 0.37045375823E+01 0.35565163864E+01 0.34143060347E+01 0.32825772922E+01 0.31637187517E+01
 0.30589065687E+01 0.29689016764E+01 0.28944906612E+01 0.28367074125E+01 0.27969784850E+01
 0.27772334326E+01 0.27799348641E+01 0.28079386486E+01 0.28640836867E+01 0.29504616533E+01
 0.30674470359E+01 0.32127068094E+01 0.33804561566E+01 0.35611772015E+01 0.37419635840E+01
 0.39076320360E+01 0.40426517095E+01 0.41336749443E+01 0.41720856476E+01 0.41557646904E+01
 0.45342700015E+01 0.43659302484E+01 0.41557647737E+01 0.39265365264E+01 0.36997183615E+01
 0.34916465274E+01 0.33118089229E+01 0.31633023639E+01 0.30447325805E+01 0.29525375312E+01
 0.28830082172E+01 0.28337258923E+01 0.28043792998E+01 0.27969784808E+01 0.28155005529E+01
 0.28650290937E+01 0.29504616533E+01 0.30749319264E+01 0.32382834865E+01 0.34360752426E+01
 0.36594293648E+01 0.38955879138E+01 0.41317042104E+01 0.43570737846E+01 0.45446583571E+01
 0.46634128522E+01 0.46963530036E+01 0.46477613053E+01 0.53517625675E+01 0.49896924663E+01
 0.46477614136E+01 0.43301923990E+01 0.40122038086E+01 0.37155463313E+01 0.34600333079E+01
 0.32545173896E+01 0.30984137701E+01 0.29853653612E+01 0.29073034801E+01 0.28577257882E+01
 0.28337258835E+01 0.28367074001E+01 0.28718523835E+01 0.29464701702E+01 0.30674470359E+01
 0.32382834865E+01 0.34566489841E+01 0.37135832366E+01 0.40006948424E+01 0.43498769863E+01
 0.47707835939E+01 0.52150864062E+01 0.55963951502E+01 0.58248860281E+01 0.58462533162E+01
 0.56670920941E+01 0.74170544337E+01 0.65276214479E+01 0.56670922398E+01 0.49766059332E+01
 0.44816140215E+01 0.40873793888E+01 0.37359373425E+01 0.34466177385E+01 0.32264581392E+01
 0.30704292264E+01 0.29676298583E+01 0.29073034741E+01 0.28830082013E+01 0.28944906406E+01
 0.29473515217E+01 0.30506479676E+01 0.32127068094E+01 0.34360752426E+01 0.37135832366E+01
 0.40423368202E+01 0.45114318940E+01 0.51912808142E+01 0.60584599389E+01 0.69995721947E+01
 0.78363603090E+01 0.83772244058E+01 0.84847895612E+01 0.81319341299E+01 0.11620333886E+02
 0.99353553730E+01 0.81319343340E+01 0.65410131401E+01 0.53626681611E+01 0.46152686125E+01
 0.41398347439E+01 0.37508594706E+01 0.34419587968E+01 0.32181225808E+01 0.30704292300E+01
 0.29853653572E+01 0.29525375143E+01 0.29689016511E+01 0.30393181646E+01 0.31736152544E+01
 0.33804561566E+01 0.36594293648E+01 0.40006948424E+01 0.45114318940E+01 0.53697040505E+01
 0.66426542349E+01 0.82665505559E+01 0.10047387799E+02 0.11687147619E+02 0.12850647710E+02
 0.13266177394E+02 0.12823281899E+02 0.18497416373E+02 0.15884674314E+02 0.12823282181E+02
 0.98601887483E+01 0.74213071217E+01 0.57182591231E+01 0.47171450749E+01 0.41658609176E+01
 0.37561370364E+01 0.34419588095E+01 0.32264581548E+01 0.30984137756E+01 0.30447325689E+01
 0.30589065432E+01 0.31437893207E+01 0.33086902003E+01 0.35611772015E+01 0.38955879138E+01
 0.43498769863E+01 0.51912808142E+01 0.66426542349E+01 0.87691983433E+01 0.11463367837E+02
 0.14441233095E+02 0.17265895327E+02 0.19425033226E+02 0.20464921081E+02 0.20138250299E+02
 0.28133768395E+02 0.24612641095E+02 0.20138250664E+02 0.15477609723E+02 0.11305301227E+02
 0.80701767812E+01 0.59317728803E+01 0.47559429327E+01 0.41658609273E+01 0.37508594944E+01
 0.34466177658E+01 0.32545174055E+01 0.31633023594E+01 0.31637187283E+01 0.32556840589E+01
 0.34467067929E+01 0.37419635840E+01 0.41317042104E+01 0.47707835939E+01 0.60584599389E+01
 0.82665505559E+01 0.11463367837E+02 0.15498284252E+02 0.19995407242E+02 0.24370652605E+02
 0.27912684067E+02 0.29946162301E+02 0.30034808703E+02 0.40179089932E+02 0.35911367056E+02
 0.30034809129E+02 0.23530105940E+02 0.17325285774E+02 0.12121865394E+02 0.83080790880E+01
 0.59317728663E+01 0.47171450746E+01 0.41398347628E+01 0.37359373692E+01 0.34600333255E+01
 0.33118089205E+01 0.32825772695E+01 0.33693877110E+01 0.35770421340E+01 0.39076320360E+01
 0.43570737846E+01 0.52150864062E+01 0.69995721947E+01 0.10047387799E+02 0.14441233095E+02
 0.19995407242E+02 0.26249960848E+02 0.32478914216E+02 0.37764747256E+02 0.41181224339E+02
 0.42052583409E+02 0.53861438278E+02 0.49153439773E+02 0.42052583842E+02 0.33740395426E+02
 0.25398933786E+02 0.17984579266E+02 0.12121865335E+02 0.80701767149E+01 0.57182590806E+01
 0.46152685997E+01 0.40873793932E+01 0.37155463342E+01 0.34916465163E+01 0.34143060081E+01
 0.34795345424E+01 0.36892651674E+01 0.40426517095E+01 0.45446583571E+01 0.55963951502E+01
 0.78363603090E+01 0.11687147619E+02 0.17265895327E+02 0.24370652605E+02 0.32478914216E+02
 0.40746208603E+02 0.48062609151E+02 0.53238443480E+02 0.55312243127E+02 0.67953540467E+02
 0.63270464255E+02 0.55312243491E+02 0.45428824618E+02 0.35052926306E+02 0.25398933670E+02
 0.17325285609E+02 0.11305301071E+02 0.74213070052E+01 0.53626680898E+01 0.44816139812E+01
 0.40122037795E+01 0.36997183300E+01 0.35565163502E+01 0.35816124445E+01 0.37749555839E+01
 0.41336749443E+01 0.46634128522E+01 0.58248860281E+01 0.83772244058E+01 0.12850647710E+02
 0.19425033226E+02 0.27912684067E+02 0.37764747256E+02 0.48062609151E+02 0.57546300480E+02
 0.64780029274E+02 0.68488389649E+02 0.80781973332E+02 0.76729654006E+02 0.68488389862E+02
 0.57502525470E+02 0.45428824447E+02 0.33740395153E+02 0.23530105641E+02 0.15477609456E+02
 0.98601885423E+01 0.65410129971E+01 0.49766058365E+01 0.43301923281E+01 0.39265364676E+01
 0.37045375332E+01 0.36720625697E+01 0.38290901441E+01 0.41720856476E+01 0.46963530036E+01
 0.58462533162E+01 0.84847895612E+01 0.13266177394E+02 0.20464921081E+02 0.29946162301E+02
 0.41181224339E+02 0.53238443480E+02 0.64780029274E+02 0.74183743103E+02 0.79873107663E+02
 0.90435899852E+02 0.87660410764E+02 0.79873107663E+02 0.68488389649E+02 0.55312243127E+02
 0.42052583409E+02 0.30034808703E+02 0.20138250299E+02 0.12823281899E+02 0.81319341299E+01
 0.56670920941E+01 0.46477613053E+01 0.41557646904E+01 0.38505067862E+01 0.37478178117E+01
 0.38505067862E+01 0.41557646904E+01 0.46477613053E+01 0.56670920941E+01 0.81319341299E+01
 0.12823281899E+02 0.20138250299E+02 0.30034808703E+02 0.42052583409E+02 0.55312243127E+02
 0.68488389649E+02 0.79873107663E+02 0.87660410764E+02 0.86812150138E+02 0.87660410525E+02
 0.83163491644E+02 0.74183742759E+02 0.62292434270E+02 0.49265404321E+02 0.36659521330E+02
 0.25616465269E+02 0.16847324576E+02 0.10657888621E+02 0.69357197584E+01 0.51444159919E+01
 0.44251352224E+01 0.40031687861E+01 0.37698659868E+01 0.37370465888E+01 0.39054652131E+01
 0.42696086357E+01 0.48402656839E+01 0.61753950319E+01 0.91908219897E+01 0.14554969009E+02
 0.22526085405E+02 0.32928628911E+02 0.45173105022E+02 0.58244588052E+02 0.70696573400E+02
 0.80781973332E+02 0.87660410525E+02 0.90435899397E+02 0.87660410157E+02 0.79873106996E+02
 0.68488389013E+02 0.55312242591E+02 0.42052583007E+02 0.30034808432E+02 0.20138250129E+02
 0.12823281791E+02 0.81319340513E+01 0.56670920286E+01 0.46477612525E+01 0.41557646590E+01
 0.38505067849E+01 0.37478178430E+01 0.38505068460E+01 0.41557647737E+01 0.46477614136E+01
 0.56670922398E+01 0.81319343340E+01 0.12823282181E+02 0.20138250664E+02 0.30034809129E+02
 0.42052583842E+02 0.55312243491E+02 0.68488389862E+02 0.79873107663E+02 0.83163491644E+02
 0.87660410157E+02 0.86812149451E+02 0.80781972432E+02 0.70696572423E+02 0.58244587128E+02