   1   1   1   0
  0.1157456E+02  0.2468172E-09  0.2468172E-09  0.2468172E-09  0.5000000E-15
  1.000000000000000E-004
  CAR 
 Fe BCC                                  
     46.65117832     -4.41233162  301      5.56439346      1.00000000
     -4.412  0.0000E+00  0.0000E+00  0.0000E+00  0.0000E+00
     -4.242  0.0000E+00  0.0000E+00  0.0000E+00  0.0000E+00
     -4.072  0.0000E+00  0.0000E+00  0.0000E+00  0.0000E+00
     -3.902  0.0000E+00  0.0000E+00  0.0000E+00  0.0000E+00
     -3.731  0.0000E+00  0.0000E+00  0.0000E+00  0.0000E+00
     -3.561  0.0000E+00  0.0000E+00  0.0000E+00  0.0000E+00
     -3.391  0.0000E+00  0.0000E+00  0.0000E+00  0.0000E+00
     -3.221  0.0000E+00  0.0000E+00  0.0000E+00  0.0000E+00
     -3.051  0.0000E+00  0.0000E+00  0.0000E+00  0.0000E+00
     -2.880  0.0000E+00  0.0000E+00  0.0000E+00  0.0000E+00
     -2.710  0.0000E+00  0.0000E+00  0.0000E+00  0.0000E+00
     -2.540  0.0000E+00  0.0000E+00  0.0000E+00  0.0000E+00
     -2.370  0.0000E+00  0.0000E+00  0.0000E+00  0.0000E+00
     -2.200  0.0000E+00  0.0000E+00  0.0000E+00  0.0000E+00
     -2.029  0.1606E-01  0.0000E+00  0.2468E-02  0.0000E+00
     -1.859  0.2202E-01  0.1800E-01  0.5713E-02  0.3745E-02
     -1.689  0.2763E-01  0.2328E-01  0.9944E-02  0.7264E-02
     -1.519  0.3289E-01  0.2814E-01  0.1510E-01  0.1165E-01
     -1.349  0.3780E-01  0.3258E-01  0.2112E-01  0.1682E-01
     -1.178  0.4236E-01  0.3660E-01  0.2795E-01  0.2271E-01
     -1.008  0.4805E-01  0.4021E-01  0.3556E-01  0.2926E-01
     -0.838  0.5749E-01  0.4602E-01  0.4454E-01  0.3651E-01
     -0.668  0.6667E-01  0.5305E-01  0.5511E-01  0.4495E-01
     -0.497  0.7560E-01  0.5940E-01  0.6722E-01  0.5453E-01
     -0.327  0.8429E-01  0.6510E-01  0.8084E-01  0.6514E-01
     -0.157  0.9418E-01  0.7013E-01  0.9593E-01  0.7665E-01
      0.013  0.1101E+00  0.7159E-01  0.1133E+00  0.8896E-01
      0.183  0.1285E+00  0.7803E-01  0.1336E+00  0.1017E+00
      0.354  0.1493E+00  0.8504E-01  0.1572E+00  0.1156E+00
      0.524  0.1726E+00  0.9260E-01  0.1845E+00  0.1307E+00
      0.694  0.1984E+00  0.1007E+00  0.2161E+00  0.1471E+00
      0.864  0.2266E+00  0.1094E+00  0.2522E+00  0.1650E+00
      1.034  0.5606E+00  0.1186E+00  0.3109E+00  0.1844E+00
      1.205  0.7469E+00  0.1284E+00  0.4230E+00  0.2054E+00
      1.375  0.9398E+00  0.1388E+00  0.5662E+00  0.2281E+00
      1.545  0.1216E+01  0.1497E+00  0.7469E+00  0.2527E+00
      1.715  0.5405E+00  0.1864E+00  0.9537E+00  0.2810E+00
      1.886  0.3690E+00  0.2344E+00  0.1030E+01  0.3166E+00
      2.056  0.2720E+00  0.2909E+00  0.1086E+01  0.3612E+00
      2.226  0.3788E+00  0.4153E+00  0.1140E+01  0.4229E+00
      2.396  0.2393E+01  0.4139E+00  0.1315E+01  0.4934E+00
      2.566  0.1511E+01  0.4193E+00  0.1703E+01  0.5640E+00
      2.737  0.5802E+00  0.4319E+00  0.1842E+01  0.6366E+00
      2.907  0.1091E+01  0.5225E+00  0.1954E+01  0.7135E+00
      3.077  0.1650E+01  0.8191E+00  0.2173E+01  0.8274E+00
      3.247  0.1291E+01  0.6100E+00  0.2447E+01  0.9588E+00
      3.417  0.8260E+00  0.1761E+00  0.2623E+01  0.1019E+01
      3.588  0.7350E+00  0.1711E+00  0.2757E+01  0.1048E+01
      3.758  0.1164E+01  0.1847E+00  0.2875E+01  0.1078E+01
      3.928  0.3736E+00  0.2470E+00  0.2956E+01  0.1113E+01
      4.098  0.4948E+00  0.1083E+01  0.3027E+01  0.1270E+01
      4.268  0.1291E+01  0.1708E+01  0.3162E+01  0.1508E+01
      4.439  0.2020E+01  0.1038E+01  0.3422E+01  0.1811E+01
      4.609  0.2480E+01  0.1034E+01  0.3849E+01  0.1982E+01
      4.779  0.1473E+01  0.1150E+01  0.4194E+01  0.2169E+01
      4.949  0.1069E+01  0.1236E+01  0.4459E+01  0.2380E+01
      5.120  0.9557E+00  0.1210E+01  0.4628E+01  0.2609E+01
      5.290  0.1078E+01  0.6881E+00  0.4798E+01  0.2772E+01
      5.460  0.1243E+01  0.3034E+00  0.4989E+01  0.2852E+01
      5.630  0.3894E+00  0.2403E+00  0.5159E+01  0.2899E+01
      5.800  0.1623E+00  0.1166E+00  0.5197E+01  0.2942E+01
      5.971  0.1734E+00  0.1474E+00  0.5226E+01  0.2964E+01
      6.141  0.1839E+00  0.2050E+00  0.5256E+01  0.2994E+01
      6.311  0.1916E+00  0.2895E+00  0.5293E+01  0.3036E+01
      6.481  0.1763E+00  0.5495E+00  0.5324E+01  0.3103E+01
      6.651  0.1569E+00  0.8532E+00  0.5352E+01  0.3241E+01
      6.822  0.1569E+00  0.1297E+01  0.5379E+01  0.3434E+01
      6.992  0.1568E+00  0.1676E+01  0.5406E+01  0.3682E+01
      7.162  0.1566E+00  0.1354E+01  0.5432E+01  0.3944E+01
      7.332  0.1564E+00  0.1183E+01  0.5459E+01  0.4155E+01
      7.502  0.1560E+00  0.1321E+01  0.5486E+01  0.4349E+01
      7.673  0.1556E+00  0.1741E+01  0.5512E+01  0.4693E+01
      7.843  0.1551E+00  0.1589E+01  0.5539E+01  0.4981E+01
      8.013  0.1546E+00  0.5691E+00  0.5565E+01  0.5172E+01
      8.183  0.1539E+00  0.3638E+00  0.5591E+01  0.5245E+01
      8.354  0.1532E+00  0.2803E+00  0.5617E+01  0.5298E+01
      8.524  0.1528E+00  0.2359E+00  0.5643E+01  0.5342E+01
      8.694  0.1520E+00  0.2100E+00  0.5669E+01  0.5379E+01
      8.864  0.1509E+00  0.2069E+00  0.5695E+01  0.5414E+01
      9.034  0.1591E+00  0.2040E+00  0.5721E+01  0.5449E+01
      9.205  0.1576E+00  0.2013E+00  0.5748E+01  0.5484E+01
      9.375  0.1558E+00  0.1988E+00  0.5775E+01  0.5518E+01
      9.545  0.1538E+00  0.1965E+00  0.5801E+01  0.5552E+01
      9.715  0.1640E+00  0.1945E+00  0.5836E+01  0.5585E+01
      9.885  0.1280E+00  0.1932E+00  0.5861E+01  0.5618E+01
     10.056  0.6444E-01  0.1910E+00  0.5878E+01  0.5651E+01
     10.226  0.6085E-01  0.1879E+00  0.5889E+01  0.5683E+01
     10.396  0.5737E-01  0.1922E+00  0.5899E+01  0.5715E+01
     10.566  0.5400E-01  0.1867E+00  0.5908E+01  0.5748E+01
     10.737  0.5075E-01  0.1804E+00  0.5917E+01  0.5779E+01
     10.907  0.4760E-01  0.1733E+00  0.5926E+01  0.5809E+01
     11.077  0.4456E-01  0.2330E+00  0.5933E+01  0.5849E+01
     11.247  0.4162E-01  0.7598E-01  0.5941E+01  0.5875E+01
     11.417  0.3880E-01  0.7124E-01  0.5948E+01  0.5888E+01
     11.588  0.3609E-01  0.6665E-01  0.5954E+01  0.5900E+01
     11.758  0.3348E-01  0.6223E-01  0.5960E+01  0.5911E+01
     11.928  0.3099E-01  0.5797E-01  0.5965E+01  0.5921E+01
     12.098  0.2860E-01  0.5387E-01  0.5970E+01  0.5930E+01
     12.268  0.2632E-01  0.4993E-01  0.5975E+01  0.5939E+01
     12.439  0.2416E-01  0.4615E-01  0.5979E+01  0.5947E+01
     12.609  0.2770E-01  0.4253E-01  0.5985E+01  0.5955E+01
     12.779  0.2398E-01  0.3908E-01  0.5990E+01  0.5962E+01
     12.949  0.2097E-01  0.3578E-01  0.5994E+01  0.5968E+01
     13.119  0.3945E-01  0.3265E-01  0.5998E+01  0.5974E+01
     13.290  0.7727E-01  0.3258E-01  0.6009E+01  0.5981E+01
     13.460  0.1015E+00  0.2782E-01  0.6024E+01  0.5987E+01
     13.630  0.1228E+00  0.2299E-01  0.6043E+01  0.5991E+01
     13.800  0.1458E+00  0.1809E-01  0.6066E+01  0.5994E+01
     13.971  0.1685E+00  0.1311E-01  0.6093E+01  0.5997E+01
     14.141  0.1908E+00  0.8051E-02  0.6124E+01  0.5999E+01
     14.311  0.2128E+00  0.1663E-01  0.6158E+01  0.6000E+01
     14.481  0.2178E+00  0.9090E-01  0.6196E+01  0.6011E+01
     14.651  0.2233E+00  0.1210E+00  0.6233E+01  0.6029E+01
     14.822  0.2279E+00  0.1508E+00  0.6272E+01  0.6053E+01
     14.992  0.2315E+00  0.1802E+00  0.6311E+01  0.6081E+01
     15.162  0.2343E+00  0.2094E+00  0.6351E+01  0.6114E+01
     15.332  0.1945E+00  0.2381E+00  0.6393E+01  0.6152E+01
     15.502  0.1957E+00  0.2664E+00  0.6427E+01  0.6195E+01
     15.673  0.2104E+00  0.2652E+00  0.6461E+01  0.6241E+01
     15.843  0.2025E+00  0.2669E+00  0.6496E+01  0.6286E+01
     16.013  0.1966E+00  0.2718E+00  0.6530E+01  0.6332E+01
     16.183  0.1929E+00  0.2272E+00  0.6563E+01  0.6382E+01
     16.353  0.1961E+00  0.2286E+00  0.6602E+01  0.6421E+01
     16.524  0.1782E+00  0.2628E+00  0.6638E+01  0.6462E+01
     16.694  0.1806E+00  0.2327E+00  0.6668E+01  0.6503E+01
     16.864  0.1829E+00  0.1839E+00  0.6699E+01  0.6544E+01
     17.034  0.1854E+00  0.1859E+00  0.6731E+01  0.6576E+01
     17.205  0.1879E+00  0.1937E+00  0.6762E+01  0.6614E+01
     17.375  0.1904E+00  0.1958E+00  0.6795E+01  0.6648E+01
     17.545  0.1892E+00  0.1980E+00  0.6827E+01  0.6681E+01
     17.715  0.1895E+00  0.2002E+00  0.6859E+01  0.6715E+01
     17.885  0.1881E+00  0.2025E+00  0.6892E+01  0.6749E+01
     18.056  0.1872E+00  0.2049E+00  0.6924E+01  0.6784E+01
     18.226  0.1871E+00  0.2034E+00  0.6955E+01  0.6819E+01
     18.396  0.1880E+00  0.2035E+00  0.6987E+01  0.6854E+01
     18.566  0.1888E+00  0.2033E+00  0.7019E+01  0.6888E+01
     18.736  0.1892E+00  0.2010E+00  0.7052E+01  0.6923E+01
     18.907  0.1892E+00  0.2001E+00  0.7084E+01  0.6957E+01
     19.077  0.1915E+00  0.2001E+00  0.7116E+01  0.6991E+01
     19.247  0.1955E+00  0.2010E+00  0.7149E+01  0.7025E+01
     19.417  0.1964E+00  0.2014E+00  0.7182E+01  0.7059E+01
     19.588  0.1942E+00  0.2014E+00  0.7216E+01  0.7093E+01
     19.758  0.1683E+00  0.2059E+00  0.7247E+01  0.7128E+01
     19.928  0.1667E+00  0.2106E+00  0.7276E+01  0.7163E+01
     20.098  0.1652E+00  0.2105E+00  0.7304E+01  0.7199E+01
     20.268  0.1637E+00  0.1814E+00  0.7332E+01  0.7234E+01
     20.439  0.1624E+00  0.1797E+00  0.7360E+01  0.7265E+01
     20.609  0.1612E+00  0.1781E+00  0.7387E+01  0.7295E+01
     20.779  0.1600E+00  0.1767E+00  0.7415E+01  0.7326E+01
     20.949  0.1590E+00  0.1753E+00  0.7442E+01  0.7356E+01
     21.119  0.1581E+00  0.1741E+00  0.7469E+01  0.7385E+01
     21.290  0.1572E+00  0.1729E+00  0.7495E+01  0.7415E+01
     21.460  0.1859E+00  0.1719E+00  0.7533E+01  0.7444E+01
     21.630  0.1943E+00  0.1710E+00  0.7566E+01  0.7473E+01
     21.800  0.1941E+00  0.1712E+00  0.7599E+01  0.7502E+01
     21.970  0.1952E+00  0.1885E+00  0.7632E+01  0.7539E+01
     22.141  0.1976E+00  0.1956E+00  0.7666E+01  0.7572E+01
     22.311  0.2012E+00  0.2033E+00  0.7700E+01  0.7608E+01
     22.481  0.2075E+00  0.2030E+00  0.7734E+01  0.7642E+01
     22.651  0.2162E+00  0.2045E+00  0.7770E+01  0.7677E+01
     22.822  0.2531E+00  0.2092E+00  0.7808E+01  0.7712E+01
     22.992  0.2486E+00  0.2155E+00  0.7853E+01  0.7748E+01
     23.162  0.2546E+00  0.2245E+00  0.7895E+01  0.7785E+01
     23.332  0.2642E+00  0.2386E+00  0.7939E+01  0.7825E+01
     23.502  0.2736E+00  0.2479E+00  0.7985E+01  0.7868E+01
     23.673  0.2829E+00  0.2607E+00  0.8032E+01  0.7913E+01
     23.843  0.2921E+00  0.2702E+00  0.8081E+01  0.7959E+01
     24.013  0.2897E+00  0.2796E+00  0.8131E+01  0.8005E+01
     24.183  0.3091E+00  0.2724E+00  0.8182E+01  0.8051E+01
     24.353  0.2944E+00  0.2811E+00  0.8236E+01  0.8098E+01
     24.524  0.2913E+00  0.2896E+00  0.8286E+01  0.8147E+01
     24.694  0.2877E+00  0.3058E+00  0.8335E+01  0.8197E+01
     24.864  0.2835E+00  0.3337E+00  0.8384E+01  0.8252E+01
     25.034  0.2788E+00  0.3008E+00  0.8432E+01  0.8305E+01
     25.205  0.2772E+00  0.2964E+00  0.8479E+01  0.8356E+01
     25.375  0.2742E+00  0.2933E+00  0.8526E+01  0.8406E+01
     25.545  0.2714E+00  0.2924E+00  0.8572E+01  0.8456E+01
     25.715  0.2674E+00  0.2890E+00  0.8618E+01  0.8505E+01
     25.885  0.2620E+00  0.2844E+00  0.8663E+01  0.8554E+01
     26.056  0.2552E+00  0.2788E+00  0.8707E+01  0.8602E+01
     26.226  0.2390E+00  0.2710E+00  0.8750E+01  0.8649E+01
     26.396  0.2340E+00  0.2537E+00  0.8790E+01  0.8693E+01
     26.566  0.2287E+00  0.2484E+00  0.8829E+01  0.8736E+01
     26.736  0.2232E+00  0.2427E+00  0.8868E+01  0.8778E+01
     26.907  0.2322E+00  0.2368E+00  0.8906E+01  0.8818E+01
     27.077  0.2194E+00  0.2306E+00  0.8944E+01  0.8858E+01
     27.247  0.2045E+00  0.2197E+00  0.8981E+01  0.8897E+01
     27.417  0.1914E+00  0.2256E+00  0.9014E+01  0.8934E+01
     27.587  0.1778E+00  0.2117E+00  0.9046E+01  0.8971E+01
     27.758  0.1639E+00  0.1993E+00  0.9075E+01  0.9006E+01
     27.928  0.1496E+00  0.1817E+00  0.9102E+01  0.9040E+01
     28.098  0.1307E+00  0.1696E+00  0.9127E+01  0.9070E+01
     28.268  0.1274E+00  0.1572E+00  0.9150E+01  0.9098E+01
     28.439  0.1265E+00  0.1446E+00  0.9172E+01  0.9124E+01
     28.609  0.1258E+00  0.1327E+00  0.9194E+01  0.9147E+01
     28.779  0.1266E+00  0.1267E+00  0.9215E+01  0.9169E+01
     28.949  0.1274E+00  0.1240E+00  0.9237E+01  0.9191E+01
     29.119  0.1281E+00  0.1323E+00  0.9258E+01  0.9214E+01
     29.290  0.1288E+00  0.1358E+00  0.9280E+01  0.9237E+01
     29.460  0.1294E+00  0.1355E+00  0.9302E+01  0.9260E+01
     29.630  0.1299E+00  0.1317E+00  0.9324E+01  0.9282E+01
     29.800  0.1190E+00  0.1113E+00  0.9348E+01  0.9305E+01
     29.970  0.1232E+00  0.1164E+00  0.9368E+01  0.9324E+01
     30.141  0.1274E+00  0.1216E+00  0.9390E+01  0.9344E+01
     30.311  0.1320E+00  0.1268E+00  0.9412E+01  0.9365E+01
     30.481  0.1416E+00  0.1322E+00  0.9435E+01  0.9388E+01
     30.651  0.1536E+00  0.1369E+00  0.9460E+01  0.9410E+01
     30.821  0.1677E+00  0.1461E+00  0.9487E+01  0.9435E+01
     30.992  0.1897E+00  0.1572E+00  0.9518E+01  0.9460E+01
     31.162  0.1972E+00  0.1706E+00  0.9551E+01  0.9488E+01
     31.332  0.2037E+00  0.1874E+00  0.9585E+01  0.9519E+01
     31.502  0.2094E+00  0.2201E+00  0.9620E+01  0.9554E+01
     31.673  0.2143E+00  0.2304E+00  0.9656E+01  0.9592E+01
     31.843  0.2182E+00  0.2730E+00  0.9693E+01  0.9634E+01
     32.013  0.6297E+00  0.3244E+00  0.9731E+01  0.9685E+01
     32.183  0.3127E+00  0.3788E+00  0.9848E+01  0.9745E+01
     32.353  0.2084E+00  0.4260E+00  0.9892E+01  0.9814E+01
     32.524  0.1766E+00  0.1222E+00  0.9926E+01  0.9884E+01
     32.694  0.2322E+00  0.1255E+00  0.9959E+01  0.9905E+01
     32.864  0.3143E+00  0.1954E+00  0.1001E+02  0.9931E+01
     33.034  0.3375E+00  0.2426E+00  0.1006E+02  0.9969E+01
     33.204  0.3432E+00  0.2813E+00  0.1012E+02  0.1001E+02
     33.375  0.3318E+00  0.3001E+00  0.1018E+02  0.1006E+02
     33.545  0.3191E+00  0.3130E+00  0.1023E+02  0.1012E+02
     33.715  0.3053E+00  0.3155E+00  0.1029E+02  0.1017E+02
     33.885  0.2901E+00  0.3074E+00  0.1034E+02  0.1022E+02
     34.056  0.2738E+00  0.2984E+00  0.1039E+02  0.1027E+02
     34.226  0.2562E+00  0.2883E+00  0.1043E+02  0.1032E+02
     34.396  0.2373E+00  0.2773E+00  0.1047E+02  0.1037E+02
     34.566  0.2131E+00  0.2652E+00  0.1051E+02  0.1042E+02
     34.736  0.2055E+00  0.2522E+00  0.1055E+02  0.1046E+02
     34.907  0.2970E+00  0.2381E+00  0.1060E+02  0.1050E+02
     35.077  0.2488E+00  0.2712E+00  0.1064E+02  0.1054E+02
     35.247  0.2436E+00  0.2604E+00  0.1069E+02  0.1059E+02
     35.417  0.2382E+00  0.2650E+00  0.1073E+02  0.1063E+02
     35.587  0.2329E+00  0.2567E+00  0.1077E+02  0.1068E+02
     35.758  0.2178E+00  0.2418E+00  0.1081E+02  0.1073E+02
     35.928  0.2138E+00  0.2379E+00  0.1085E+02  0.1077E+02
     36.098  0.2098E+00  0.2337E+00  0.1088E+02  0.1081E+02
     36.268  0.2177E+00  0.2293E+00  0.1092E+02  0.1085E+02
     36.438  0.2133E+00  0.2358E+00  0.1096E+02  0.1089E+02
     36.609  0.2114E+00  0.2320E+00  0.1099E+02  0.1093E+02
     36.779  0.2070E+00  0.2281E+00  0.1103E+02  0.1097E+02
     36.949  0.2036E+00  0.2227E+00  0.1106E+02  0.1101E+02
     37.119  0.2012E+00  0.2192E+00  0.1110E+02  0.1105E+02
     37.290  0.2025E+00  0.2113E+00  0.1113E+02  0.1108E+02
     37.460  0.2069E+00  0.2049E+00  0.1117E+02  0.1112E+02
     37.630  0.2555E+00  0.2049E+00  0.1120E+02  0.1115E+02
     37.800  0.2835E+00  0.2056E+00  0.1125E+02  0.1119E+02
     37.970  0.2944E+00  0.2069E+00  0.1130E+02  0.1122E+02
     38.141  0.2897E+00  0.2621E+00  0.1135E+02  0.1126E+02
     38.311  0.2639E+00  0.2740E+00  0.1140E+02  0.1131E+02
     38.481  0.2511E+00  0.2536E+00  0.1145E+02  0.1136E+02
     38.651  0.2322E+00  0.2509E+00  0.1149E+02  0.1140E+02
     38.821  0.2196E+00  0.2478E+00  0.1153E+02  0.1145E+02
     38.992  0.2139E+00  0.2420E+00  0.1156E+02  0.1149E+02
     39.162  0.2072E+00  0.2337E+00  0.1160E+02  0.1153E+02
     39.332  0.1939E+00  0.2229E+00  0.1163E+02  0.1157E+02
     39.502  0.1793E+00  0.2202E+00  0.1167E+02  0.1161E+02
     39.672  0.1648E+00  0.2039E+00  0.1170E+02  0.1164E+02
     39.843  0.1502E+00  0.1872E+00  0.1172E+02  0.1167E+02
     40.013  0.1357E+00  0.1700E+00  0.1175E+02  0.1171E+02
     40.183  0.1212E+00  0.1524E+00  0.1177E+02  0.1173E+02
     40.353  0.1067E+00  0.1344E+00  0.1179E+02  0.1176E+02
     40.524  0.9366E-01  0.1181E+00  0.1180E+02  0.1178E+02
     40.694  0.8841E-01  0.1044E+00  0.1182E+02  0.1180E+02
     40.864  0.8364E-01  0.9416E-01  0.1183E+02  0.1181E+02
     41.034  0.7905E-01  0.8894E-01  0.1185E+02  0.1183E+02
     41.204  0.7462E-01  0.8391E-01  0.1186E+02  0.1184E+02
     41.375  0.7036E-01  0.7907E-01  0.1187E+02  0.1186E+02
     41.545  0.6626E-01  0.7441E-01  0.1189E+02  0.1187E+02
     41.715  0.6233E-01  0.6995E-01  0.1190E+02  0.1188E+02
     41.885  0.5857E-01  0.6567E-01  0.1191E+02  0.1190E+02
     42.055  0.5498E-01  0.6158E-01  0.1192E+02  0.1191E+02
     42.226  0.5155E-01  0.5768E-01  0.1193E+02  0.1192E+02
     42.396  0.4828E-01  0.5396E-01  0.1193E+02  0.1193E+02
     42.566  0.4519E-01  0.5044E-01  0.1194E+02  0.1193E+02
     42.736  0.4225E-01  0.4710E-01  0.1195E+02  0.1194E+02
     42.907  0.3949E-01  0.4395E-01  0.1196E+02  0.1195E+02
     43.077  0.3689E-01  0.4098E-01  0.1196E+02  0.1196E+02
     43.247  0.3446E-01  0.3821E-01  0.1197E+02  0.1196E+02
     43.417  0.2892E-01  0.3562E-01  0.1198E+02  0.1197E+02
     43.587  0.4331E-01  0.3322E-01  0.1199E+02  0.1198E+02
     43.758  0.2573E-01  0.4762E-01  0.1200E+02  0.1200E+02
     43.928  0.1271E-01  0.3972E-02  0.1200E+02  0.1200E+02
     44.098  0.4229E-02  0.0000E+00  0.1200E+02  0.1200E+02
     44.268  0.3007E-03  0.0000E+00  0.1200E+02  0.1200E+02
     44.438  0.0000E+00  0.0000E+00  0.1200E+02  0.1200E+02
     44.609  0.0000E+00  0.0000E+00  0.1200E+02  0.1200E+02
     44.779  0.0000E+00  0.0000E+00  0.1200E+02  0.1200E+02
     44.949  0.0000E+00  0.0000E+00  0.1200E+02  0.1200E+02
     45.119  0.0000E+00  0.0000E+00  0.1200E+02  0.1200E+02
     45.289  0.0000E+00  0.0000E+00  0.1200E+02  0.1200E+02
     45.460  0.0000E+00  0.0000E+00  0.1200E+02  0.1200E+02
     45.630  0.0000E+00  0.0000E+00  0.1200E+02  0.1200E+02
     45.800  0.0000E+00  0.0000E+00  0.1200E+02  0.1200E+02
     45.970  0.0000E+00  0.0000E+00  0.1200E+02  0.1200E+02
     46.141  0.0000E+00  0.0000E+00  0.1200E+02  0.1200E+02
     46.311  0.0000E+00  0.0000E+00  0.1200E+02  0.1200E+02
     46.481  0.0000E+00  0.0000E+00  0.1200E+02  0.1200E+02
     46.651  0.0000E+00  0.0000E+00  0.1200E+02  0.1200E+02
     46.65117832     -4.41233162  301      5.56439346      1.00000000
     -4.412  0.0000E+00  0.0000E+00  0.0000E+00  0.0000E+00  0.0000E+00  0.0000E+00  0.0000E+00  0.0000E+00  0.0000E+00  0.0000E+00  0.0000E+00  0.0000E+00  0.0000E+00  0.0000E+00  0.0000E+00  0.0000E+00  0.0000E+00  0.0000E+00
     -4.242  0.0000E+00  0.0000E+00  0.0000E+00  0.0000E+00  0.0000E+00  0.0000E+00  0.0000E+00  0.0000E+00  0.0000E+00  0.0000E+00  0.0000E+00  0.0000E+00  0.0000E+00  0.0000E+00  0.0000E+00  0.0000E+00  0.0000E+00  0.0000E+00
     -4.072  0.0000E+00  0.0000E+00  0.0000E+00  0.0000E+00  0.0000E+00  0.0000E+00  0.0000E+00  0.0000E+00  0.0000E+00  0.0000E+00  0.0000E+00  0.0000E+00  0.0000E+00  0.0000E+00  0.0000E+00  0.0000E+00  0.0000E+00  0.0000E+00
     -3.902  0.0000E+00  0.0000E+00  0.0000E+00  0.0000E+00  0.0000E+00  0.0000E+00  0.0000E+00  0.0000E+00  0.0000E+00  0.0000E+00  0.0000E+00  0.0000E+00  0.0000E+00  0.0000E+00  0.0000E+00  0.0000E+00  0.0000E+00  0.0000E+00
     -3.731  0.0000E+00  0.0000E+00  0.0000E+00  0.0000E+00  0.0000E+00  0.0000E+00  0.0000E+00  0.0000E+00  0.0000E+00  0.0000E+00  0.0000E+00  0.0000E+00  0.0000E+00  0.0000E+00  0.0000E+00  0.0000E+00  0.0000E+00  0.0000E+00
     -3.561  0.0000E+00  0.0000E+00  0.0000E+00  0.0000E+00  0.0000E+00  0.0000E+00  0.0000E+00  0.0000E+00  0.0000E+00  0.0000E+00  0.0000E+00  0.0000E+00  0.0000E+00  0.0000E+00  0.0000E+00  0.0000E+00  0.0000E+00  0.0000E+00
     -3.391  0.0000E+00  0.0000E+00  0.0000E+00  0.0000E+00  0.0000E+00  0.0000E+00  0.0000E+00  0.0000E+00  0.0000E+00  0.0000E+00  0.0000E+00  0.0000E+00  0.0000E+00  0.0000E+00  0.0000E+00  0.0000E+00  0.0000E+00  0.0000E+00
     -3.221  0.0000E+00  0.0000E+00  0.0000E+00  0.0000E+00  0.0000E+00  0.0000E+00  0.0000E+00  0.0000E+00  0.0000E+00  0.0000E+00  0.0000E+00  0.0000E+00  0.0000E+00  0.0000E+00  0.0000E+00  0.0000E+00  0.0000E+00  0.0000E+00
     -3.051  0.0000E+00  0.0000E+00  0.0000E+00  0.0000E+00  0.0000E+00  0.0000E+00  0.0000E+00  0.0000E+00  0.0000E+00  0.0000E+00  0.0000E+00  0.0000E+00  0.0000E+00  0.0000E+00  0.0000E+00  0.0000E+00  0.0000E+00  0.0000E+00
     -2.880  0.0000E+00  0.0000E+00  0.0000E+00  0.0000E+00  0.0000E+00  0.0000E+00  0.0000E+00  0.0000E+00  0.0000E+00  0.0000E+00  0.0000E+00  0.0000E+00  0.0000E+00  0.0000E+00  0.0000E+00  0.0000E+00  0.0000E+00  0.0000E+00
     -2.710  0.0000E+00  0.0000E+00  0.0000E+00  0.0000E+00  0.0000E+00  0.0000E+00  0.0000E+00  0.0000E+00  0.0000E+00  0.0000E+00  0.0000E+00  0.0000E+00  0.0000E+00  0.0000E+00  0.0000E+00  0.0000E+00  0.0000E+00  0.0000E+00
     -2.540  0.0000E+00  0.0000E+00  0.0000E+00  0.0000E+00  0.0000E+00  0.0000E+00  0.0000E+00  0.0000E+00  0.0000E+00  0.0000E+00  0.0000E+00  0.0000E+00  0.0000E+00  0.0000E+00  0.0000E+00  0.0000E+00  0.0000E+00  0.0000E+00
     -2.370  0.0000E+00  0.0000E+00  0.0000E+00  0.0000E+00  0.0000E+00  0.0000E+00  0.0000E+00  0.0000E+00  0.0000E+00  0.0000E+00  0.0000E+00  0.0000E+00  0.0000E+00  0.0000E+00  0.0000E+00  0.0000E+00  0.0000E+00  0.0000E+00
     -2.200  0.0000E+00  0.0000E+00  0.0000E+00  0.0000E+00  0.0000E+00  0.0000E+00  0.0000E+00  0.0000E+00  0.0000E+00  0.0000E+00  0.0000E+00  0.0000E+00  0.0000E+00  0.0000E+00  0.0000E+00  0.0000E+00  0.0000E+00  0.0000E+00
     -2.029  0.1029E-01  0.0000E+00  0.1504E-03  0.0000E+00  0.1087E-03  0.0000E+00  0.7467E-03  0.0000E+00  0.1265E-03  0.0000E+00  0.2630E-04  0.0000E+00  0.5312E-04  0.0000E+00  0.2520E-04  0.0000E+00  0.4625E-04  0.0000E+00
     -1.859  0.1378E-01  0.1145E-01  0.2751E-03  0.2116E-03  0.1915E-03  0.1463E-03  0.1112E-02  0.8943E-03  0.2500E-03  0.9279E-04  0.6236E-04  0.2367E-04  0.1064E-03  0.3644E-04  0.4690E-04  0.2153E-04  0.9241E-04  0.3755E-04
     -1.689  0.1693E-01  0.1453E-01  0.3997E-03  0.3372E-03  0.2647E-03  0.2231E-03  0.1506E-02  0.1258E-02  0.3977E-03  0.1590E-03  0.1159E-03  0.4489E-04  0.1760E-03  0.6387E-04  0.6948E-04  0.3444E-04  0.1615E-03  0.6618E-04
     -1.519  0.1974E-01  0.1726E-01  0.5245E-03  0.4636E-03  0.3283E-03  0.2913E-03  0.1927E-02  0.1644E-02  0.5697E-03  0.2356E-03  0.1870E-03  0.7257E-04  0.2620E-03  0.9812E-04  0.9293E-04  0.4751E-04  0.2535E-03  0.1049E-03
     -1.349  0.2222E-01  0.1966E-01  0.6493E-03  0.5909E-03  0.3823E-03  0.3510E-03  0.2375E-02  0.2054E-02  0.7660E-03  0.3226E-03  0.2755E-03  0.1067E-03  0.3643E-03  0.1392E-03  0.1173E-03  0.6077E-04  0.3685E-03  0.1538E-03
     -1.178  0.2436E-01  0.2171E-01  0.7741E-03  0.7190E-03  0.4267E-03  0.4021E-03  0.2852E-02  0.2487E-02  0.9865E-03  0.4201E-03  0.3816E-03  0.1473E-03  0.4830E-03  0.1871E-03  0.1425E-03  0.7420E-04  0.5064E-03  0.2129E-03
     -1.008  0.2696E-01  0.2342E-01  0.9418E-03  0.8481E-03  0.4931E-03  0.4447E-03  0.3446E-02  0.2943E-02  0.1269E-02  0.5281E-03  0.5535E-03  0.1943E-03  0.6360E-03  0.2418E-03  0.1768E-03  0.8780E-04  0.6858E-03  0.2820E-03
     -0.838  0.3125E-01  0.2625E-01  0.1227E-02  0.1063E-02  0.6479E-03  0.5446E-03  0.4284E-02  0.3581E-02  0.1722E-02  0.6839E-03  0.9911E-03  0.2945E-03  0.8862E-03  0.3186E-03  0.2633E-03  0.1134E-03  0.9775E-03  0.3777E-03
     -0.668  0.3499E-01  0.2957E-01  0.1514E-02  0.1338E-02  0.8126E-03  0.6987E-03  0.5102E-02  0.4303E-02  0.2266E-02  0.8934E-03  0.1631E-02  0.4777E-03  0.1203E-02  0.4230E-03  0.3962E-03  0.1613E-03  0.1354E-02  0.5060E-03
     -0.497  0.3816E-01  0.3231E-01  0.1803E-02  0.1614E-02  0.9873E-03  0.8656E-03  0.5900E-02  0.4984E-02  0.2902E-02  0.1135E-02  0.2474E-02  0.7230E-03  0.1587E-02  0.5470E-03  0.5754E-03  0.2269E-03  0.1816E-02  0.6584E-03
     -0.327  0.4078E-01  0.3448E-01  0.2094E-02  0.1891E-02  0.1172E-02  0.1045E-02  0.6679E-02  0.5626E-02  0.3629E-02  0.1408E-02  0.3520E-02  0.1030E-02  0.2037E-02  0.6905E-03  0.8009E-03  0.3102E-03  0.2363E-02  0.8350E-03
     -0.157  0.4136E-01  0.3608E-01  0.2404E-02  0.2169E-02  0.1380E-02  0.1238E-02  0.7939E-02  0.6227E-02  0.4844E-02  0.1713E-02  0.5365E-02  0.1400E-02  0.3019E-02  0.8536E-03  0.1286E-02  0.4113E-03  0.3829E-02  0.1036E-02
      0.013  0.4504E-01  0.3428E-01  0.2721E-02  0.2434E-02  0.1600E-02  0.1491E-02  0.9233E-02  0.6912E-02  0.7029E-02  0.2073E-02  0.6986E-02  0.2049E-02  0.4913E-02  0.1117E-02  0.1820E-02  0.6154E-03  0.5079E-02  0.1561E-02
      0.183  0.4898E-01  0.3597E-01  0.3052E-02  0.2680E-02  0.1839E-02  0.1693E-02  0.1064E-01  0.7648E-02  0.9762E-02  0.2759E-02  0.8887E-02  0.2464E-02  0.7327E-02  0.1589E-02  0.2511E-02  0.7879E-03  0.6534E-02  0.1940E-02
      0.354  0.5319E-01  0.3774E-01  0.3397E-02  0.2930E-02  0.2096E-02  0.1900E-02  0.1217E-01  0.8437E-02  0.1304E-01  0.3556E-02  0.1107E-01  0.2929E-02  0.1026E-01  0.2147E-02  0.3358E-02  0.9946E-03  0.8194E-02  0.2363E-02
      0.524  0.5765E-01  0.3958E-01  0.3755E-02  0.3184E-02  0.2371E-02  0.2114E-02  0.1382E-01  0.9279E-02  0.1687E-01  0.4465E-02  0.1353E-01  0.3445E-02  0.1372E-01  0.2791E-02  0.4362E-02  0.1236E-02  0.1006E-01  0.2830E-02
      0.694  0.6238E-01  0.4149E-01  0.4127E-02  0.3444E-02  0.2664E-02  0.2333E-02  0.1559E-01  0.1017E-01  0.2125E-01  0.5486E-02  0.1627E-01  0.4011E-02  0.1769E-01  0.3521E-02  0.5521E-02  0.1511E-02  0.1213E-01  0.3343E-02
      0.864  0.6737E-01  0.4348E-01  0.4512E-02  0.3707E-02  0.2976E-02  0.2559E-02  0.1747E-01  0.1112E-01  0.2617E-01  0.6619E-02  0.1929E-01  0.4627E-02  0.2219E-01  0.4337E-02  0.6837E-02  0.1821E-02  0.1440E-01  0.3900E-02
      1.034  0.1151E+00  0.4553E-01  0.8048E-02  0.3975E-02  0.6539E-02  0.2791E-02  0.2876E-01  0.1212E-01  0.9662E-01  0.7863E-02  0.7976E-01  0.5293E-02  0.7889E-01  0.5238E-02  0.1724E-01  0.2165E-02  0.3691E-01  0.4502E-02
      1.205  0.1127E+00  0.4766E-01  0.8837E-02  0.4248E-02  0.7370E-02  0.3029E-02  0.3673E-01  0.1318E-01  0.1138E+00  0.9218E-02  0.8533E-01  0.6009E-02  0.1514E+00  0.6226E-02  0.3271E-01  0.2544E-02  0.8377E-01  0.5149E-02
      1.375  0.1071E+00  0.4986E-01  0.9374E-02  0.4525E-02  0.7986E-02  0.3273E-02  0.4491E-01  0.1428E-01  0.1352E+00  0.1069E-01  0.8566E-01  0.6776E-02  0.2448E+00  0.7299E-02  0.4615E-01  0.2956E-02  0.1232E+00  0.5841E-02
      1.545  0.1051E+00  0.5214E-01  0.1099E-01  0.4807E-02  0.1025E-01  0.3523E-02  0.5415E-01  0.1544E-01  0.1746E+00  0.1226E-01  0.8835E-01  0.7593E-02  0.3934E+00  0.8458E-02  0.6249E-01  0.3403E-02  0.1506E+00  0.6577E-02
      1.715  0.3880E-01  0.5847E-01  0.8621E-02  0.5968E-02  0.4658E-02  0.4671E-02  0.1443E-01  0.1785E-01  0.8546E-01  0.1747E-01  0.8319E-01  0.1321E-01  0.1027E+00  0.1220E-01  0.5947E-01  0.5692E-02  0.7838E-01  0.8651E-02
      1.886  0.1558E-01  0.6618E-01  0.6777E-02  0.7137E-02  0.2081E-02  0.5825E-02  0.8387E-02  0.2114E-01  0.3966E-01  0.2510E-01  0.6365E-01  0.2002E-01  0.5128E-01  0.1826E-01  0.5240E-01  0.8215E-02  0.8868E-01  0.1182E-01
      2.056  0.4261E-02  0.7392E-01  0.5136E-02  0.8204E-02  0.1532E-02  0.6887E-02  0.6331E-02  0.2501E-01  0.1572E-01  0.3486E-01  0.3615E-01  0.2800E-01  0.3618E-01  0.2655E-01  0.3597E-01  0.1123E-01  0.1016E+00  0.1598E-01
      2.226  0.2582E-02  0.8903E-01  0.5910E-02  0.8595E-02  0.2462E-02  0.7101E-02  0.6955E-02  0.3373E-01  0.1851E-01  0.6259E-01  0.5292E-01  0.4423E-01  0.5908E-01  0.4886E-01  0.6696E-01  0.1546E-01  0.1267E+00  0.2562E-01
      2.396  0.3297E-02  0.8018E-01  0.4656E-01  0.8447E-02  0.1690E-01  0.7083E-02  0.4976E-01  0.3304E-01  0.3385E+00  0.6259E-01  0.5196E+00  0.4386E-01  0.1511E+00  0.5408E-01  0.7738E+00  0.1846E-01  0.3082E+00  0.2852E-01
      2.566  0.3437E-02  0.7395E-01  0.1354E-01  0.8520E-02  0.1301E-01  0.7161E-02  0.9267E-02  0.3314E-01  0.1792E+00  0.6386E-01  0.3537E+00  0.4291E-01  0.1721E+00  0.5913E-01  0.5409E+00  0.2177E-01  0.1248E+00  0.3196E-01
      2.737  0.1165E-02  0.6977E-01  0.4967E-02  0.8716E-02  0.8252E-02  0.7230E-02  0.1895E-02  0.3351E-01  0.1067E+00  0.6573E-01  0.1196E+00  0.4419E-01  0.6295E-01  0.6392E-01  0.2076E+00  0.2497E-01  0.3101E-01  0.3641E-01
      2.907  0.1318E-01  0.6572E-01  0.3144E-01  0.9133E-02  0.5202E-01  0.7173E-02  0.2538E-01  0.3885E-01  0.2948E+00  0.6780E-01  0.1511E+00  0.4475E-01  0.5702E-01  0.8507E-01  0.2001E+00  0.2798E-01  0.1656E+00  0.8486E-01
      3.077  0.3308E-01  0.7035E-01  0.5680E-01  0.1246E-01  0.5131E-01  0.8879E-02  0.3187E-01  0.5853E-01  0.4300E+00  0.9750E-01  0.2754E+00  0.4569E-01  0.1016E+00  0.1808E+00  0.3335E+00  0.3153E-01  0.1970E+00  0.1743E+00
      3.247  0.1813E-01  0.4382E-01  0.4201E-01  0.1483E-01  0.2895E-01  0.1005E-01  0.3289E-01  0.2749E-01  0.3581E+00  0.7583E-01  0.1657E+00  0.6085E-01  0.8748E-01  0.1268E+00  0.2585E+00  0.4944E-01  0.1963E+00  0.1061E+00
      3.417  0.1261E-01  0.6145E-02  0.3346E-01  0.5678E-02  0.2334E-01  0.3449E-02  0.2732E-01  0.5028E-02  0.1590E+00  0.9415E-02  0.1308E+00  0.2117E-01  0.4601E-01  0.5486E-01  0.1469E+00  0.1844E-01  0.1718E+00  0.2586E-01
      3.588  0.9559E-02  0.2766E-02  0.2786E-01  0.5942E-02  0.1900E-01  0.2662E-02  0.2291E-01  0.4735E-02  0.1189E+00  0.7012E-02  0.1416E+00  0.1072E-01  0.3693E-01  0.6374E-01  0.1464E+00  0.1032E-01  0.1491E+00  0.3719E-01
      3.758  0.8521E-02  0.7332E-03  0.2466E-01  0.7507E-02  0.2556E-01  0.2307E-02  0.1931E-01  0.5741E-02  0.1467E+00  0.6599E-02  0.2839E+00  0.5810E-02  0.3450E-01  0.6990E-01  0.4141E+00  0.7692E-02  0.1320E+00  0.4999E-01
      3.928  0.2953E-02  0.5216E-04  0.1080E-01  0.1207E-01  0.8396E-02  0.2411E-02  0.5733E-02  0.9290E-02  0.8550E-01  0.1105E-01  0.7307E-01  0.1056E-01  0.4246E-01  0.7415E-01  0.7327E-01  0.1791E-01  0.4769E-01  0.7283E-01
      4.098  0.2384E-02  0.4070E-03  0.7268E-02  0.4861E-01  0.5294E-02  0.1251E-01  0.3021E-02  0.4075E-01  0.1557E+00  0.1545E+00  0.7198E-01  0.1411E+00  0.9275E-01  0.1070E+00  0.9207E-01  0.2726E+00  0.4189E-01  0.1820E+00