    1    1    1    2
  0.1157456E+02  0.2468172E-09  0.2468172E-09  0.2468172E-09  0.5000000E-15
  1.000000000000000E-004
  CAR 
 Fe BCC                                  
      8     14     12
 
  0.8333333E-01  0.8333333E-01  0.8333333E-01  0.3703704E-01
    1       -1.054044     -0.938215   1.000000   1.000000
    2        2.982309      4.950001   1.000000   1.000000
    3        2.982309      4.950001   1.000000   1.001939
    4        4.372020      6.513224   1.000000   0.000000
    5        4.538017      7.213365   1.000806   0.000000
    6        4.538017      7.213365   1.000072   0.000000
    7       25.049333     25.316740   0.000000   0.000000
    8       25.049333     25.316740   0.000000   0.000000
    9       28.207151     29.025203   0.000000   0.000000
   10       32.058923     31.699456   0.000000   0.000000
   11       37.198392     37.440194   0.000000   0.000000
   12       37.198392     37.440194   0.000000   0.000000
 
  0.2500000E+00  0.8333333E-01  0.8333333E-01  0.1111111E+00
    1        0.989802      1.557121   1.000000   1.000000
    2        2.466035      4.304226   1.000000   1.000000
    3        3.051613      4.570796   1.000000   1.002084
    4        4.576638      7.187151   1.000000   0.000000
    5        4.727111      7.475825   1.021712   0.000000
    6        6.146344      8.213758   0.071650   0.000000
    7       17.838189     18.619015   0.000000   0.000000
    8       22.347309     22.687408   0.000000   0.000000
    9       23.968545     24.626871   0.000000   0.000000
   10       32.485182     32.455670   0.000000   0.000000
   11       36.481903     36.965055   0.000000   0.000000
   12       39.189022     39.339088   0.000000   0.000000
 
  0.4166667E+00  0.8333333E-01  0.8333333E-01  0.5555556E-01
    1        1.193700      2.525583   1.000000   1.000000
    2        2.252913      4.036894   1.000000   1.000000
    3        4.320455      5.367079   1.000000   0.998318
    4        4.687915      7.297599   1.000000   0.000000
    5        4.795423      7.582784   1.062951   0.000000
    6        8.338208      9.710857  -0.007582   0.000000
    7       12.933041     14.266521   0.000000   0.000000
    8       21.317406     21.636928   0.000000   0.000000
    9       22.550511     23.139496   0.000000   0.000000
   10       32.108363     32.233043   0.000000   0.000000
   11       36.256609     36.777525   0.000000   0.000000
   12       40.428875     40.390447   0.000000   0.000000
 
 -0.8333333E-01  0.8333333E-01  0.8333333E-01  0.2777778E-01
    1       -2.091263     -1.999529   1.000000   1.000000
    2        3.342615      5.386554   1.000000   1.000000
    3        3.342618      5.386557   1.000000   0.996503
    4        3.490341      5.574456   1.000000   0.000000
    5        4.359259      6.996946   1.000000   0.000000
    6        4.700668      7.437736   1.007397   0.000000
    7       27.969535     27.859282   0.000000   0.000000
    8       29.669694     29.657071   0.000000   0.000000
    9       29.669702     29.657072   0.000000   0.000000
   10       32.119737     32.451512   0.000000   0.000000
   11       34.926324     35.555928   0.000000   0.000000
   12       34.926325     35.555935   0.000000   0.000000
 
  0.2500000E+00  0.2500000E+00  0.8333333E-01  0.1111111E+00
    1        1.916423      3.308430   1.000000   1.000000
    2        2.378205      3.966636   1.000000   1.000000
    3        2.917968      4.267773   1.000000   1.000746
    4        4.719146      7.380610   1.000000   0.000000
    5        4.849533      7.578433   1.012792   0.000000
    6        9.596596     11.020872  -0.007850   0.000000
    7       15.248999     16.123563   0.000000   0.000000
    8       16.316154     17.086588   0.000000   0.000000
    9       21.328707     21.874224   0.000000   0.000000
   10       35.745506     35.666829   0.000000   0.000000
   11       38.295991     38.350706   0.000000   0.000000
   12       43.475147     43.625706   0.000000   0.000000
 
 -0.2500000E+00  0.2500000E+00  0.8333333E-01  0.1111111E+00
    1       -0.192377      0.010495   1.000000   1.000000
    2        2.947455      4.901076   1.000000   1.000000
    3        3.195170      5.093558   1.000000   1.008391
    4        4.172703      6.631423   1.000000   0.000000
    5        4.491651      6.685298   1.014242   0.000000
    6        4.892894      7.617202   0.792256   0.000000
    7       21.485358     22.068757   0.000000   0.000000
    8       26.172673     26.273898   0.000000   0.000000
    9       26.848608     27.383636   0.000000   0.000000
   10       32.011972     32.378758   0.000000   0.000000
   11       32.375888     32.809051   0.000000   0.000000
   12       34.740352     35.040059   0.000000   0.000000
 
 -0.4166667E+00  0.4166667E+00  0.8333333E-01  0.1111111E+00
    1        0.984685      2.128098   1.000000   1.000000
    2        2.530681      4.398945   1.000000   1.000000
    3        3.778968      5.194829   1.000000   1.001062
    4        4.524858      6.984368   1.000000   0.000000
    5        5.716388      8.087005   0.667786   0.000000
    6        6.270583      8.107109   0.006061   0.000000
    7       14.470806     15.596854   0.000000   0.000000
    8       23.964906     24.033000   0.000000   0.000000
    9       24.342742     24.915825   0.000000   0.000000
   10       30.935084     31.398958   0.000000   0.000000
   11       33.182628     33.664459   0.000000   0.000000
   12       36.171104     36.301675   0.000000   0.000000
 
 -0.2500000E+00  0.4166667E+00  0.8333333E-01  0.1111111E+00
    1        1.427302      2.182447   1.000000   1.000000
    2        2.477490      4.332575   1.000000   1.000000
    3        3.137759      4.913627   1.000000   1.036846
    4        4.246497      6.593695   1.000000   0.000000
    5        5.067151      7.555226   1.035646   0.000000
    6        6.648138      8.636191  -0.016072   0.000000
    7       18.283168     19.058536   0.000000   0.000000
    8       19.006988     19.664083   0.000000   0.000000
    9       28.212321     28.581645   0.000000   0.000000
   10       28.557325     28.766515   0.000000   0.000000
   11       32.839993     33.206339   0.000000   0.000000
   12       40.533810     40.823307   0.000000   0.000000
 
 -0.4166667E+00 -0.4166667E+00  0.8333333E-01  0.1111111E+00
    1        1.689648      3.185880   1.000000   1.000000
    2        2.631483      4.397133   1.000000   1.000000
    3        2.849404      4.444570   1.000000   1.065600
    4        4.554877      6.945910   1.000000   0.000000
    5        5.367518      7.764917   1.016148   0.000000
    6       10.014851     11.197897  -0.002871   0.000000
    7       13.131465     14.335994   0.000000   0.000000
    8       17.517830     18.204483   0.000000   0.000000
    9       26.950581     27.238397   0.000000   0.000000
   10       30.234953     30.621988   0.000000   0.000000
   11       32.647811     32.728073   0.000000   0.000000
   12       38.661154     39.408362   0.000000   0.000000
 
  0.2500000E+00  0.2500000E+00  0.2500000E+00  0.9259259E-02
    1        2.456043      3.930484   1.000000   1.000000
    2        2.456047      3.930486   1.000000   1.000000
    3        2.456047      3.930486   1.000000   1.000000
    4        4.821402      7.617622   1.000000   0.000000
    5        4.821402      7.617622   1.000000   0.000000
    6       14.163479     15.060277   0.000000   0.000000
    7       14.163484     15.060281   0.000000   0.000000
    8       14.163484     15.060281   0.000000   0.000000
    9       16.268380     16.996327   0.000000   0.000000
   10       44.330027     43.996918   0.000000   0.000000
   11       44.330032     43.996920   0.000000   0.000000
   12       44.330110     43.996920   0.000000   0.000000
 
 -0.2500000E+00  0.2500000E+00  0.2500000E+00  0.2777778E-01
    1        1.105072      1.609806   1.000000   1.000000
    2        2.757741      4.940737   1.000000   1.000000
    3        3.776569      5.769213   1.000000   0.563802
    4        3.776572      5.769217   1.000000   0.000000
    5        4.487919      6.696976   1.093161   0.000000
    6        5.869869      8.202172   0.146422   0.000000
    7       22.516566     23.132795   0.000000   0.000000
    8       22.516577     23.132796   0.000000   0.000000
    9       23.101866     23.566013   0.000000   0.000000
   10       25.366394     25.733989   0.000000   0.000000
   11       39.243234     39.505265   0.000000   0.000000
   12       39.243238     39.505271   0.000000   0.000000
 
 -0.4166667E+00  0.4166667E+00  0.2500000E+00  0.1111111E+00
    1        1.615143      3.063834   1.000000   1.000000
    2        2.069602      3.860426   1.000000   1.000000
    3        3.754005      5.746943   1.000000   0.424143
    4        4.284887      6.403562   1.000000   0.000000
    5        5.581616      7.930950   0.771148   0.000000
    6        9.006189     10.283789  -0.014690   0.000000
    7       15.607946     16.474284   0.000000   0.000000
    8       19.699560     20.244942   0.000000   0.000000
    9       22.813792     23.345349   0.000000   0.000000
   10       27.215923     27.561830   0.000000   0.000000
   11       34.428832     35.144060   0.000000   0.000000
   12       37.610118     38.015514   0.000000   0.000000
 
 -0.4166667E+00 -0.4166667E+00  0.2500000E+00  0.3703704E-01
    1        1.610634      3.362338   1.000000   1.000000
    2        1.610634      3.362338   1.000000   1.000000
    3        3.816327      5.737694   1.000000   0.301265
    4        5.336707      7.614727   1.000000   0.000000
    5        5.336708      7.614735   1.086810   0.000000
    6       13.556242     14.386117   0.000000   0.000000
    7       13.556252     14.386121   0.000000   0.000000
    8       15.157102     15.871678   0.000000   0.000000
    9       25.397542     25.796510   0.000000   0.000000
   10       25.397547     25.796513   0.000000   0.000000
   11       30.214743     31.121209   0.000000   0.000000
   12       38.103844     38.533565   0.000000   0.000000
 
 -0.4166667E+00  0.4166667E+00  0.4166667E+00  0.2777778E-01
    1        1.179369      2.889829   1.000000   1.000000
    2        1.187654      3.010874   1.000000   1.000000
    3        5.263126      7.497355   1.000000  -0.063640
    4        5.263127      7.497361   1.000000   0.000000
    5        5.521747      7.871991   1.000464   0.000000
    6       12.518970     13.153767   0.000000   0.000000
    7       16.485340     16.850587   0.000000   0.000000
    8       16.485351     16.850591   0.000000   0.000000
    9       21.369660     22.225996   0.000000   0.000000
   10       22.875389     23.543111   0.000000   0.000000
   11       28.130640     29.071863   0.000000   0.000000
   12       43.376803     43.641426   0.000000   0.000000
