Automatically generated mesh
      14
Reciprocal lattice
    0.08333333333333    0.08333333333333    0.08333333333333             8
    0.25000000000000    0.08333333333333    0.08333333333333            24
    0.41666666666667    0.08333333333333    0.08333333333333            12
   -0.08333333333333    0.08333333333333    0.08333333333333             6
    0.25000000000000    0.25000000000000    0.08333333333333            24
   -0.25000000000000    0.25000000000000    0.08333333333333            24
   -0.41666666666667    0.41666666666667    0.08333333333333            24
   -0.25000000000000    0.41666666666667    0.08333333333333            24
   -0.41666666666667   -0.41666666666667    0.08333333333333            24
    0.25000000000000    0.25000000000000    0.25000000000000             2
   -0.25000000000000    0.25000000000000    0.25000000000000             6
   -0.41666666666667    0.41666666666667    0.25000000000000            24
   -0.41666666666667   -0.41666666666667    0.25000000000000             8
   -0.41666666666667    0.41666666666667    0.41666666666667             6
Tetrahedra
       206    0.00077160493827
         4         1         2         2         5
         8         2         2         5         5
         4         2         5         5        10
        12         2         3         5         5
         8         2         5         5         5
        16         5         5         5        10
         8         3         5         5         5
         8         5         5         5         5
         4         2         2         3         5
         4         2         2         2         5
         8         2         2         5         8
         4         2         5         5         8
        16         1         2         2         6
         4         2         2         2         6
        12         2         2         6         8
        16         1         2         6         6
         4         2         6         6        11
         4         2         6         8        11
        20         1         4         6         6
         4         1         6         6         6
         4         6         6         6        11
         8         4         6         6         6
         4         6         6         6         8
         4         6         6         8        11
         8         1         2         4         6
         8         2         4         6         6
         8         2         6         6         8
         4         2         2         5         6
         4         2         5         6         8
        16         3         5         5        10
         4         3         5         9        10
         4         2         5         5         7
         8         3         5         5         7
         8         3         5         7         9
        12         2         5         7         8
         4         5         7         8        12
         4         5         7         9        12
         4         2         6         8         8
         4         2         7         8         8
         4         7         8         8        12
         8         6         8         8        11
         8         8         8        11        12
         4         8         8        12        12
         4         6         6         7        11
        12         6         7         8        11
        12         7         8        11        12
         4         7         8         9        11
         4         7         9        11        12
         4         2         3         6         8
         4         3         6         7         8
        12         3         7         8         9
        16         2         3         5         8
         8         3         5         5         8
        16         3         5         8         9
         4         3         7         9         9
         8         7         9         9        12
        16         9         9        12        13
        16         7         8         9        12
         8         8         9        12        12
         4         9        12        12        12
        16         9        12        12        13
         4         7         7         8        12
        12         7         9        12        12
         8         7         7         9        12
         4         7         8        12        12
        16         2         3         7         9
         8         2         7         7         9
         8         2         7         8         9
        16         2         3         5         9
         4         2         2         5         9
         4         2         2         8         9
         8         8         9         9        13
        12         8         9        12        13
         4         8        11        12        13
         4         6         7         9        12
         4         6         8         9        12
         8         6         8        11        12
         8         6         7         8        12
         4         6         6         8        12
         4         6         6        11        12
         4         1         2         7         8
         4         1         6         7         8
         8         1         6         6         8
         8         1         2         2         8
        12         1         2         6         8
         4         4         6         8        11
         4         4         6         6        11
         4         1         4         6        11
         4         4         4         6         6
        12         1         4         4         6
         6         1         1         4         4
         8         1         1         4         6
         4         1         1         2         6
         4         2         3         5        10
        12         3         5         5         9
         8         5         5         5         9
        12         2         3         7         8
         4         3         7         8        12
         4         3         8         9        12
         4         2         6         7        11
         4         2         7         8        11
         4         7        11        12        12
         4         6         6         8         8
         4         6         7         8         8
         4         7         8         8         9
         4         8         8         9        12
         4         2         5         6         7
         4         5         6         7         8
        12         5         7         8         9
         8         2         3         5         7
         4         5         5         7         9
         4         5         5         9        10
         8         5         5         9         9
         4         5         9         9        13
         4         5         8         9        12
         4         5         9         9        12
         8         9        12        12        14
         8         9        12        13        14
         4         8        11        12        12
         4         8        12        12        12
         8        12        12        12        14
         4        11        12        12        12
         4        12        12        12        13
        20        12        12        13        14
         4         8         9        11        12
         4         9        11        12        12
        12         8         9         9        12
         4         9         9         9        12
         4         5         5         8         9
         8         5         8         9         9
         4         5         9         9         9
         4         3         5         9         9
         4         9        12        13        13
         8        12        13        13        14
         6        13        13        14        14
        12        12        13        14        14
         4        12        12        14        14
         8         8        12        12        13
         4         7         8         9        13
         4         7         8        12        13
         4         2         5         9         9
         4         2         8         9         9
         4        11        12        13        14
         4        11        12        12        14
         4         8        11        12        14
         4         6         8        12        12
         4         6        11        12        12
         4         2         6         7        12
         4         2         6         8        12
        16         2         6         7         8
         4         6         6         7         8
        12         2         6         6         7
         8         2         6         7         7
         4         6         7         7         8
         4         1         6         8        11
         4         2         6         6         6
         8         2         2         6         7
         4         2         2         3         7
         8         2         5         5         9
         8         2         5         8         9
         4         2         7         9        12
         4         2         8         9        12
         4         3         7         7        12
         4         3         7         9        12
         4         7         9        12        13
         4         7        12        12        13
         6         9         9        12        12
         4         7         8         9         9
         2         7         7         9         9
         8         3         5         7         7
         4         5         7         7         9
         4         2         2         5         7
         4         5         8         9        13
         4         8        12        13        14
         4        12        14        14        14
         6        12        12        13        13
         4         3         8         9         9
         8         3         7         7         8
         4        13        14        14        14
         2        14        14        14        14
         4         3         7         7         9
         4         7         7         7         9
         8         3         7         7         7
         4         2         3         3         7
         4         3         3         7         7
         4         1         4         6         8
         4         1         2         5         8
         4         2         6         7         9
         4         2         6         8         9
         4         2         2         3         8
         6         2         2         6         6
         6         1         1         6         6
         4         4         4         4         6
         4         5         7         9         9
         4         2         5         7         7
         4         2         2         7         8
         2         2         2         7         7
         4         1         6         6         7
         4         1         2         6         7
         4         2         3         6         7
         4         3         6         7         7
         4         3         3         7         9
         4         2         7         7         7
         4         2         3         7         7
         4         1         4         4         4
         2         4         4         4         4
