 running on    4 total cores
 distrk:  each k-point on    4 cores,    1 groups
 distr:  one band on    1 cores,    4 groups
 using from now: INCAR     
 vasp.5.4.1 24Jun15 (build Jul 19 2016 16:50:41) complex                        
  
 POSCAR found type information on POSCAR  Fe
 POSCAR found :  1 types and       1 ions
 LDA part: xc-table for Pade appr. of Perdew
 POSCAR, INCAR and KPOINTS ok, starting setup
 FFT: planning ...
 WAVECAR not read
 entering main loop
       N       E                     dE             d eps       ncg     rms          rms(c)
DAV:   1     0.126338294807E+02    0.12634E+02   -0.30326E+03   768   0.591E+02
DAV:   2    -0.829602644892E+01   -0.20930E+02   -0.19537E+02   696   0.999E+01
DAV:   3    -0.867359055108E+01   -0.37756E+00   -0.37651E+00   788   0.157E+01
DAV:   4    -0.867486867227E+01   -0.12781E-02   -0.12738E-02   768   0.820E-01
DAV:   5    -0.867487684216E+01   -0.81699E-05   -0.81411E-05   784   0.674E-02    0.122E+01
DAV:   6    -0.828121059107E+01    0.39367E+00   -0.97824E+00   768   0.374E+01    0.501E+00
DAV:   7    -0.823382354465E+01    0.47387E-01   -0.47562E-01   792   0.805E+00    0.302E+00
DAV:   8    -0.822609611915E+01    0.77274E-02   -0.53512E-03   812   0.461E-01    0.138E+00
DAV:   9    -0.821748735248E+01    0.86088E-02   -0.75739E-03   892   0.432E-01    0.233E-01
DAV:  10    -0.821758347315E+01   -0.96121E-04   -0.39840E-04   776   0.239E-01    0.381E-02
DAV:  11    -0.821767286638E+01   -0.89393E-04   -0.74464E-05   828   0.783E-02    0.352E-02
DAV:  12    -0.821770654880E+01   -0.33682E-04   -0.51280E-06   728   0.155E-02    0.156E-02
DAV:  13    -0.821769409447E+01    0.12454E-04   -0.21259E-06   444   0.108E-02    0.105E-02
DAV:  14    -0.821769753868E+01   -0.34442E-05   -0.79893E-07   396   0.469E-03    0.746E-04
DAV:  15    -0.821769899413E+01   -0.14554E-05   -0.39274E-08   384   0.188E-03    0.450E-04
DAV:  16    -0.821769864021E+01    0.35391E-06   -0.45485E-09   372   0.648E-04
   1 F= -.82176986E+01 E0= -.82176986E+01  d E =0.000000E+00  mag=     2.2378
 writing wavefunctions
