PROCAR lm decomposed
# of k-points:   14         # of bands:  12         # of ions:   1

 k-point    1 :    0.08333333 0.08333333 0.08333333     weight = 0.03703704

band   1 # energy   -1.05404376 # occ.  1.00000000
 
ion      s     py     pz     px    dxy    dyz    dz2    dxz    dx2    tot
  1  0.597  0.034  0.034  0.034  0.008  0.008  0.000  0.008  0.000  0.723
 
band   2 # energy    2.98230939 # occ.  1.00000000
 
ion      s     py     pz     px    dxy    dyz    dz2    dxz    dx2    tot
  1  0.000  0.000  0.002  0.003  0.372  0.507  0.031  0.025  0.019  0.959
 
band   3 # energy    2.98230939 # occ.  1.00000000
 
ion      s     py     pz     px    dxy    dyz    dz2    dxz    dx2    tot
  1  0.000  0.004  0.002  0.001  0.230  0.096  0.019  0.578  0.031  0.959
 
band   4 # energy    4.37202020 # occ.  1.00000000
 
ion      s     py     pz     px    dxy    dyz    dz2    dxz    dx2    tot
  1  0.006  0.007  0.007  0.007  0.315  0.315  0.000  0.315  0.000  0.971
 
band   5 # energy    4.53801707 # occ.  1.00080563
 
ion      s     py     pz     px    dxy    dyz    dz2    dxz    dx2    tot
  1  0.000  0.000  0.000  0.000  0.003  0.030  0.081  0.022  0.834  0.970
 
band   6 # energy    4.53801707 # occ.  1.00007236
 
ion      s     py     pz     px    dxy    dyz    dz2    dxz    dx2    tot
  1  0.000  0.000  0.000  0.000  0.034  0.007  0.834  0.015  0.081  0.970
 
band   7 # energy   25.04933327 # occ.  0.00000000
 
ion      s     py     pz     px    dxy    dyz    dz2    dxz    dx2    tot
  1  0.000  0.074  0.003  0.092  0.006  0.168  0.005  0.136  0.158  0.641
 
band   8 # energy   25.04933327 # occ.  0.00000000
 
ion      s     py     pz     px    dxy    dyz    dz2    dxz    dx2    tot
  1  0.000  0.038  0.109  0.021  0.200  0.039  0.158  0.070  0.005  0.641
 
band   9 # energy   28.20715086 # occ.  0.00000000
 
ion      s     py     pz     px    dxy    dyz    dz2    dxz    dx2    tot
  1  0.132  0.172  0.172  0.172  0.098  0.098  0.000  0.098  0.000  0.943
 
band  10 # energy   32.05892316 # occ.  0.00000000
 
ion      s     py     pz     px    dxy    dyz    dz2    dxz    dx2    tot
  1  0.000  0.000  0.000  0.000  0.000  0.000  0.000  0.000  0.000  0.000
 
band  11 # energy   37.19839182 # occ.  0.00000000
 
ion      s     py     pz     px    dxy    dyz    dz2    dxz    dx2    tot
  1  0.000  0.055  0.095  0.027  0.249  0.070  0.035  0.144  0.008  0.683
 
band  12 # energy   37.19839186 # occ.  0.00000000
 
ion      s     py     pz     px    dxy    dyz    dz2    dxz    dx2    tot
  1  0.000  0.063  0.023  0.091  0.060  0.238  0.008  0.165  0.035  0.683
 

 k-point    2 :    0.25000000 0.08333333 0.08333333     weight = 0.11111111

band   1 # energy    0.98980177 # occ.  1.00000000
 
ion      s     py     pz     px    dxy    dyz    dz2    dxz    dx2    tot
  1  0.287  0.046  0.046  0.030  0.006  0.296  0.022  0.006  0.065  0.804
 
band   2 # energy    2.46603474 # occ.  1.00000000
 
ion      s     py     pz     px    dxy    dyz    dz2    dxz    dx2    tot
  1  0.000  0.005  0.005  0.000  0.458  0.000  0.017  0.458  0.006  0.949
 
band   3 # energy    3.05161279 # occ.  1.00000000
 
ion      s     py     pz     px    dxy    dyz    dz2    dxz    dx2    tot
  1  0.059  0.069  0.069  0.001  0.157  0.246  0.031  0.157  0.094  0.882
 
band   4 # energy    4.57663790 # occ.  1.00000000
 
ion      s     py     pz     px    dxy    dyz    dz2    dxz    dx2    tot
  1  0.002  0.000  0.000  0.001  0.013  0.213  0.184  0.013  0.551  0.977
 
band   5 # energy    4.72711125 # occ.  1.02171170
 
ion      s     py     pz     px    dxy    dyz    dz2    dxz    dx2    tot
  1  0.000  0.000  0.000  0.000  0.013  0.000  0.716  0.013  0.239  0.980
 
band   6 # energy    6.14634390 # occ.  0.07165002
 
ion      s     py     pz     px    dxy    dyz    dz2    dxz    dx2    tot
  1  0.050  0.041  0.041  0.015  0.313  0.164  0.001  0.313  0.002  0.939
 
band   7 # energy   17.83818918 # occ.  0.00000000
 
ion      s     py     pz     px    dxy    dyz    dz2    dxz    dx2    tot
  1  0.146  0.124  0.124  0.025  0.009  0.281  0.023  0.009  0.068  0.809
 
band   8 # energy   22.34730890 # occ.  0.00000000
 
ion      s     py     pz     px    dxy    dyz    dz2    dxz    dx2    tot
  1  0.000  0.131  0.131  0.000  0.167  0.000  0.036  0.167  0.012  0.644
 
band   9 # energy   23.96854549 # occ.  0.00000000
 
ion      s     py     pz     px    dxy    dyz    dz2    dxz    dx2    tot
  1  0.177  0.025  0.025  0.437  0.049  0.008  0.011  0.049  0.033  0.813
 
band  10 # energy   32.48518205 # occ.  0.00000000
 
ion      s     py     pz     px    dxy    dyz    dz2    dxz    dx2    tot
  1  0.000  0.004  0.004  0.000  0.246  0.000  0.012  0.246  0.004  0.517
 
band  11 # energy   36.48190322 # occ.  0.00000000
 
ion      s     py     pz     px    dxy    dyz    dz2    dxz    dx2    tot
  1  0.050  0.029  0.029  0.141  0.036  0.028  0.138  0.036  0.413  0.899
 
band  12 # energy   39.18902201 # occ.  0.00000000
 
ion      s     py     pz     px    dxy    dyz    dz2    dxz    dx2    tot
  1  0.000  0.080  0.080  0.000  0.145  0.000  0.050  0.145  0.017  0.517
 

 k-point    3 :    0.41666667 0.08333333 0.08333333     weight = 0.05555556

band   1 # energy    1.19370047 # occ.  1.00000000
 
ion      s     py     pz     px    dxy    dyz    dz2    dxz    dx2    tot
  1  0.105  0.000  0.000  0.026  0.000  0.517  0.058  0.000  0.173  0.878
 
band   2 # energy    2.25291277 # occ.  1.00000000
 
ion      s     py     pz     px    dxy    dyz    dz2    dxz    dx2    tot
  1  0.000  0.006  0.006  0.000  0.467  0.000  0.000  0.467  0.000  0.947
 
band   3 # energy    4.32045505 # occ.  1.00000000
 
ion      s     py     pz     px    dxy    dyz    dz2    dxz    dx2    tot
  1  0.000  0.126  0.126  0.000  0.310  0.000  0.000  0.310  0.000  0.872
 
band   4 # energy    4.68791517 # occ.  1.00000000
 
ion      s     py     pz     px    dxy    dyz    dz2    dxz    dx2    tot
  1  0.009  0.000  0.000  0.001  0.000  0.269  0.175  0.000  0.526  0.980
 
band   5 # energy    4.79542282 # occ.  1.06295134
 
ion      s     py     pz     px    dxy    dyz    dz2    dxz    dx2    tot
  1  0.000  0.000  0.000  0.000  0.000  0.000  0.738  0.000  0.246  0.984
 
band   6 # energy    8.33820813 # occ. -0.00758189
 
ion      s     py     pz     px    dxy    dyz    dz2    dxz    dx2    tot
  1  0.000  0.209  0.209  0.000  0.200  0.000  0.000  0.200  0.000  0.817
 
band   7 # energy   12.93304066 # occ.  0.00000000
 
ion      s     py     pz     px    dxy    dyz    dz2    dxz    dx2    tot
  1  0.414  0.000  0.000  0.031  0.000  0.367  0.020  0.000  0.059  0.890
 
band   8 # energy   21.31740570 # occ.  0.00000000
 
ion      s     py     pz     px    dxy    dyz    dz2    dxz    dx2    tot
  1  0.000  0.145  0.145  0.000  0.164  0.000  0.000  0.164  0.000  0.617
 
band   9 # energy   22.55051064 # occ.  0.00000000
 
ion      s     py     pz     px    dxy    dyz    dz2    dxz    dx2    tot
  1  0.176  0.000  0.000  0.522  0.000  0.031  0.012  0.000  0.035  0.775
 
band  10 # energy   32.10836314 # occ.  0.00000000
 
ion      s     py     pz     px    dxy    dyz    dz2    dxz    dx2    tot
  1  0.000  0.006  0.006  0.000  0.359  0.000  0.000  0.359  0.000  0.729
 
band  11 # energy   36.25660898 # occ.  0.00000000
 
ion      s     py     pz     px    dxy    dyz    dz2    dxz    dx2    tot
  1  0.110  0.000  0.000  0.143  0.000  0.003  0.171  0.000  0.513  0.940
 
band  12 # energy   40.42887463 # occ.  0.00000000
 
ion      s     py     pz     px    dxy    dyz    dz2    dxz    dx2    tot
  1  0.000  0.033  0.033  0.000  0.011  0.000  0.000  0.011  0.000  0.089
 

 k-point    4 :   -0.08333333 0.08333333 0.08333333     weight = 0.02777778

band   1 # energy   -2.09126298 # occ.  1.00000000
 
ion      s     py     pz     px    dxy    dyz    dz2    dxz    dx2    tot
  1  0.677  0.000  0.000  0.039  0.000  0.000  0.000  0.000  0.001  0.718
 
band   2 # energy    3.34261475 # occ.  1.00000000
 
ion      s     py     pz     px    dxy    dyz    dz2    dxz    dx2    tot
  1  0.000  0.002  0.002  0.000  0.484  0.000  0.000  0.484  0.000  0.971
 
band   3 # energy    3.34261759 # occ.  1.00000000
 
ion      s     py     pz     px    dxy    dyz    dz2    dxz    dx2    tot
  1  0.000  0.002  0.002  0.000  0.484  0.000  0.000  0.484  0.000  0.971
 
band   4 # energy    3.49034084 # occ.  1.00000000
 
ion      s     py     pz     px    dxy    dyz    dz2    dxz    dx2    tot
  1  0.000  0.000  0.000  0.000  0.000  0.974  0.000  0.000  0.000  0.974
 
band   5 # energy    4.35925885 # occ.  1.00000000
 
ion      s     py     pz     px    dxy    dyz    dz2    dxz    dx2    tot
  1  0.000  0.000  0.000  0.000  0.000  0.000  0.720  0.000  0.240  0.959
 
band   6 # energy    4.70066844 # occ.  1.00739705
 
ion      s     py     pz     px    dxy    dyz    dz2    dxz    dx2    tot
  1  0.001  0.000  0.000  0.000  0.000  0.000  0.243  0.000  0.729  0.974
 
band   7 # energy   27.96953540 # occ.  0.00000000
 
ion      s     py     pz     px    dxy    dyz    dz2    dxz    dx2    tot
  1  0.000  0.000  0.000  0.000  0.000  0.000  0.245  0.000  0.082  0.326
 
band   8 # energy   29.66969358 # occ.  0.00000000
 
ion      s     py     pz     px    dxy    dyz    dz2    dxz    dx2    tot
  1  0.000  0.038  0.038  0.000  0.202  0.000  0.000  0.202  0.000  0.480
 
band   9 # energy   29.66970189 # occ.  0.00000000
 
ion      s     py     pz     px    dxy    dyz    dz2    dxz    dx2    tot
  1  0.000  0.038  0.038  0.000  0.202  0.000  0.000  0.202  0.000  0.480
 
band  10 # energy   32.11973657 # occ.  0.00000000
 
ion      s     py     pz     px    dxy    dyz    dz2    dxz    dx2    tot
  1  0.037  0.000  0.000  0.342  0.000  0.000  0.046  0.000  0.138  0.562
 
band  11 # energy   34.92632407 # occ.  0.00000000
 
ion      s     py     pz     px    dxy    dyz    dz2    dxz    dx2    tot
  1  0.000  0.224  0.224  0.000  0.137  0.000  0.000  0.137  0.000  0.723
 
band  12 # energy   34.92632511 # occ.  0.00000000
 
ion      s     py     pz     px    dxy    dyz    dz2    dxz    dx2    tot
  1  0.000  0.224  0.224  0.000  0.137  0.000  0.000  0.137  0.000  0.723
 

 k-point    5 :    0.25000000 0.25000000 0.08333333     weight = 0.11111111

band   1 # energy    1.91642272 # occ.  1.00000000
 
ion      s     py     pz     px    dxy    dyz    dz2    dxz    dx2    tot
  1  0.056  0.021  0.001  0.021  0.155  0.310  0.037  0.310  0.000  0.910
 
band   2 # energy    2.37820543 # occ.  1.00000000
 
ion      s     py     pz     px    dxy    dyz    dz2    dxz    dx2    tot
  1  0.000  0.042  0.000  0.042  0.000  0.321  0.000  0.321  0.181  0.908
 
band   3 # energy    2.91796759 # occ.  1.00000000
 
ion      s     py     pz     px    dxy    dyz    dz2    dxz    dx2    tot
  1  0.028  0.022  0.123  0.022  0.596  0.014  0.065  0.014  0.000  0.883
 
band   4 # energy    4.71914615 # occ.  1.00000000
 
ion      s     py     pz     px    dxy    dyz    dz2    dxz    dx2    tot
  1  0.000  0.001  0.000  0.001  0.000  0.103  0.000  0.103  0.771  0.981
 
band   5 # energy    4.84953251 # occ.  1.01279238
 
ion      s     py     pz     px    dxy    dyz    dz2    dxz    dx2    tot
  1  0.003  0.001  0.003  0.001  0.034  0.041  0.859  0.041  0.000  0.983
 
band   6 # energy    9.59659569 # occ. -0.00784960
 
ion      s     py     pz     px    dxy    dyz    dz2    dxz    dx2    tot
  1  0.096  0.062  0.167  0.062  0.178  0.130  0.028  0.130  0.000  0.853
 
band   7 # energy   15.24899916 # occ.  0.00000000
 
ion      s     py     pz     px    dxy    dyz    dz2    dxz    dx2    tot
  1  0.000  0.199  0.000  0.199  0.000  0.168  0.000  0.168  0.073  0.808
 
band   8 # energy   16.31615406 # occ.  0.00000000
 
ion      s     py     pz     px    dxy    dyz    dz2    dxz    dx2    tot
  1  0.420  0.007  0.143  0.007  0.107  0.055  0.000  0.055  0.000  0.794
 
band   9 # energy   21.32870739 # occ.  0.00000000
 
ion      s     py     pz     px    dxy    dyz    dz2    dxz    dx2    tot
  1  0.154  0.158  0.062  0.158  0.117  0.048  0.007  0.048  0.000  0.752
 
band  10 # energy   35.74550574 # occ.  0.00000000
 
ion      s     py     pz     px    dxy    dyz    dz2    dxz    dx2    tot
  1  0.000  0.018  0.000  0.018  0.000  0.073  0.000  0.073  0.204  0.386
 
band  11 # energy   38.29599075 # occ.  0.00000000
 
ion      s     py     pz     px    dxy    dyz    dz2    dxz    dx2    tot
  1  0.012  0.022  0.001  0.022  0.241  0.045  0.134  0.045  0.000  0.520
 
band  12 # energy   43.47514665 # occ.  0.00000000
 
ion      s     py     pz     px    dxy    dyz    dz2    dxz    dx2    tot
  1  0.000  0.067  0.000  0.069  0.000  0.000  0.000  0.000  0.397  0.535
 

 k-point    6 :   -0.25000000 0.25000000 0.08333333     weight = 0.11111111

band   1 # energy   -0.19237718 # occ.  1.00000000
 
ion      s     py     pz     px    dxy    dyz    dz2    dxz    dx2    tot
  1  0.496  0.024  0.000  0.117  0.057  0.000  0.027  0.000  0.016  0.738
 
band   2 # energy    2.94745505 # occ.  1.00000000
 
ion      s     py     pz     px    dxy    dyz    dz2    dxz    dx2    tot
  1  0.000  0.000  0.004  0.000  0.000  0.384  0.000  0.574  0.000  0.961
 
band   3 # energy    3.19516960 # occ.  1.00000000
 
ion      s     py     pz     px    dxy    dyz    dz2    dxz    dx2    tot
  1  0.017  0.027  0.000  0.022  0.541  0.000  0.242  0.000  0.075  0.923
 
band   4 # energy    4.17270318 # occ.  1.00000000
 
ion      s     py     pz     px    dxy    dyz    dz2    dxz    dx2    tot
  1  0.001  0.004  0.000  0.003  0.340  0.000  0.496  0.000  0.119  0.961
 
band   5 # energy    4.49165062 # occ.  1.01424218
 
ion      s     py     pz     px    dxy    dyz    dz2    dxz    dx2    tot
  1  0.000  0.000  0.008  0.000  0.000  0.587  0.000  0.380  0.000  0.975
 
band   6 # energy    4.89289444 # occ.  0.79225619
 
ion      s     py     pz     px    dxy    dyz    dz2    dxz    dx2    tot
  1  0.021  0.001  0.000  0.006  0.001  0.000  0.182  0.000  0.764  0.975
 
band   7 # energy   21.48535817 # occ.  0.00000000
 
ion      s     py     pz     px    dxy    dyz    dz2    dxz    dx2    tot
  1  0.070  0.176  0.000  0.078  0.289  0.000  0.149  0.000  0.015  0.777
 
band   8 # energy   26.17267341 # occ.  0.00000000
 
ion      s     py     pz     px    dxy    dyz    dz2    dxz    dx2    tot
  1  0.044  0.010  0.000  0.151  0.019  0.000  0.102  0.000  0.100  0.426
 
band   9 # energy   26.84860764 # occ.  0.00000000
 
ion      s     py     pz     px    dxy    dyz    dz2    dxz    dx2    tot
  1  0.000  0.000  0.364  0.000  0.000  0.013  0.000  0.537  0.000  0.914
 
band  10 # energy   32.01197217 # occ.  0.00000000
 
ion      s     py     pz     px    dxy    dyz    dz2    dxz    dx2    tot
  1  0.000  0.282  0.000  0.049  0.163  0.000  0.173  0.000  0.011  0.677
 
band  11 # energy   32.37588841 # occ.  0.00000000
 
ion      s     py     pz     px    dxy    dyz    dz2    dxz    dx2    tot
  1  0.000  0.000  0.251  0.000  0.000  0.547  0.000  0.045  0.000  0.844
 
band  12 # energy   34.74035244 # occ.  0.00000000
 
ion      s     py     pz     px    dxy    dyz    dz2    dxz    dx2    tot
  1  0.139  0.060  0.000  0.069  0.054  0.000  0.133  0.000  0.040  0.494
 

 k-point    7 :   -0.41666667 0.41666667 0.08333333     weight = 0.11111111

band   1 # energy    0.98468485 # occ.  1.00000000
 
ion      s     py     pz     px    dxy    dyz    dz2    dxz    dx2    tot
  1  0.151  0.001  0.000  0.029  0.405  0.000  0.268  0.000  0.004  0.858
 
band   2 # energy    2.53068144 # occ.  1.00000000
 
ion      s     py     pz     px    dxy    dyz    dz2    dxz    dx2    tot
  1  0.000  0.000  0.004  0.000  0.000  0.451  0.000  0.499  0.000  0.954
 
band   3 # energy    3.77896796 # occ.  1.00000000
 
ion      s     py     pz     px    dxy    dyz    dz2    dxz    dx2    tot
  1  0.026  0.067  0.000  0.079  0.001  0.000  0.113  0.000  0.598  0.884
 
band   4 # energy    4.52485761 # occ.  1.00000000
 
ion      s     py     pz     px    dxy    dyz    dz2    dxz    dx2    tot
  1  0.006  0.007  0.000  0.005  0.373  0.000  0.526  0.000  0.055  0.972
 
band   5 # energy    5.71638842 # occ.  0.66778585
 
ion      s     py     pz     px    dxy    dyz    dz2    dxz    dx2    tot
  1  0.000  0.000  0.003  0.000  0.000  0.522  0.000  0.463  0.000  0.988
 
band   6 # energy    6.27058313 # occ.  0.00606139
 
ion      s     py     pz     px    dxy    dyz    dz2    dxz    dx2    tot
  1  0.080  0.141  0.000  0.197  0.076  0.000  0.019  0.000  0.328  0.841
 
band   7 # energy   14.47080591 # occ.  0.00000000
 
ion      s     py     pz     px    dxy    dyz    dz2    dxz    dx2    tot
  1  0.299  0.126  0.000  0.033  0.307  0.000  0.093  0.000  0.007  0.866
 
band   8 # energy   23.96490602 # occ.  0.00000000
 
ion      s     py     pz     px    dxy    dyz    dz2    dxz    dx2    tot
  1  0.042  0.084  0.000  0.126  0.002  0.000  0.111  0.000  0.013  0.378
 
band   9 # energy   24.34274206 # occ.  0.00000000
 
ion      s     py     pz     px    dxy    dyz    dz2    dxz    dx2    tot
  1  0.000  0.000  0.582  0.000  0.000  0.046  0.000  0.226  0.000  0.854
 
band  10 # energy   30.93508390 # occ.  0.00000000
 
ion      s     py     pz     px    dxy    dyz    dz2    dxz    dx2    tot
  1  0.000  0.000  0.145  0.000  0.000  0.540  0.000  0.348  0.000  1.034
 
band  11 # energy   33.18262824 # occ.  0.00000000
 
ion      s     py     pz     px    dxy    dyz    dz2    dxz    dx2    tot
  1  0.123  0.139  0.000  0.011  0.005  0.000  0.548  0.000  0.011  0.837
 
band  12 # energy   36.17110449 # occ.  0.00000000
 
ion      s     py     pz     px    dxy    dyz    dz2    dxz    dx2    tot
  1  0.072  0.037  0.000  0.000  0.119  0.000  0.029  0.000  0.262  0.520
 

 k-point    8 :   -0.25000000 0.41666667 0.08333333     weight = 0.11111111

band   1 # energy    1.42730207 # occ.  1.00000000
 
ion      s     py     pz     px    dxy    dyz    dz2    dxz    dx2    tot
  1  0.210  0.009  0.009  0.113  0.133  0.009  0.051  0.133  0.152  0.819
 
band   2 # energy    2.47748995 # occ.  1.00000000
 
ion      s     py     pz     px    dxy    dyz    dz2    dxz    dx2    tot
  1  0.000  0.018  0.018  0.000  0.174  0.000  0.392  0.174  0.131  0.907
 
band   3 # energy    3.13775918 # occ.  1.00000000
 
ion      s     py     pz     px    dxy    dyz    dz2    dxz    dx2    tot
  1  0.010  0.009  0.009  0.050  0.134  0.485  0.024  0.134  0.073  0.929
 
band   4 # energy    4.24649688 # occ.  1.00000000
 
ion      s     py     pz     px    dxy    dyz    dz2    dxz    dx2    tot
  1  0.000  0.005  0.005  0.000  0.281  0.000  0.294  0.281  0.098  0.965
 
band   5 # energy    5.06715142 # occ.  1.03564642
 
ion      s     py     pz     px    dxy    dyz    dz2    dxz    dx2    tot
  1  0.021  0.000  0.000  0.006  0.101  0.320  0.107  0.101  0.322  0.979
 
band   6 # energy    6.64813840 # occ. -0.01607186
 
ion      s     py     pz     px    dxy    dyz    dz2    dxz    dx2    tot
  1  0.114  0.023  0.023  0.115  0.105  0.157  0.067  0.105  0.200  0.909
 
band   7 # energy   18.28316849 # occ.  0.00000000
 
ion      s     py     pz     px    dxy    dyz    dz2    dxz    dx2    tot
  1  0.000  0.180  0.180  0.000  0.127  0.000  0.157  0.127  0.052  0.823
 
band   8 # energy   19.00698788 # occ.  0.00000000
 
ion      s     py     pz     px    dxy    dyz    dz2    dxz    dx2    tot
  1  0.264  0.082  0.082  0.115  0.104  0.031  0.000  0.104  0.001  0.783
 
band   9 # energy   28.21232111 # occ.  0.00000000
 
ion      s     py     pz     px    dxy    dyz    dz2    dxz    dx2    tot
  1  0.000  0.219  0.219  0.075  0.000  0.058  0.000  0.000  0.001  0.572
 
band  10 # energy   28.55732460 # occ.  0.00000000
 
ion      s     py     pz     px    dxy    dyz    dz2    dxz    dx2    tot
  1  0.000  0.058  0.058  0.000  0.085  0.000  0.279  0.085  0.093  0.656
 
band  11 # energy   32.83999285 # occ.  0.00000000
 
ion      s     py     pz     px    dxy    dyz    dz2    dxz    dx2    tot
  1  0.107  0.000  0.000  0.003  0.141  0.331  0.042  0.141  0.126  0.892
 
band  12 # energy   40.53380978 # occ.  0.00000000
 
ion      s     py     pz     px    dxy    dyz    dz2    dxz    dx2    tot
  1  0.000  0.122  0.122  0.000  0.053  0.000  0.135  0.053  0.045  0.528
 

 k-point    9 :   -0.41666667-0.41666667 0.08333333     weight = 0.11111111

band   1 # energy    1.68964803 # occ.  1.00000000
 
ion      s     py     pz     px    dxy    dyz    dz2    dxz    dx2    tot
  1  0.059  0.012  0.019  0.012  0.377  0.011  0.383  0.011  0.000  0.883
 
band   2 # energy    2.63148335 # occ.  1.00000000
 
ion      s     py     pz     px    dxy    dyz    dz2    dxz    dx2    tot
  1  0.009  0.003  0.016  0.003  0.021  0.390  0.106  0.390  0.000  0.937
 
band   3 # energy    2.84940413 # occ.  1.00000000
 
ion      s     py     pz     px    dxy    dyz    dz2    dxz    dx2    tot
  1  0.000  0.066  0.000  0.066  0.000  0.052  0.000  0.052  0.642  0.878
 
band   4 # energy    4.55487654 # occ.  1.00000000
 
ion      s     py     pz     px    dxy    dyz    dz2    dxz    dx2    tot
  1  0.010  0.002  0.005  0.002  0.426  0.058  0.407  0.058  0.000  0.969
 
band   5 # energy    5.36751770 # occ.  1.01614756
 
ion      s     py     pz     px    dxy    dyz    dz2    dxz    dx2    tot
  1  0.000  0.014  0.000  0.014  0.000  0.374  0.000  0.374  0.203  0.979
 
band   6 # energy   10.01485112 # occ. -0.00287093
 
ion      s     py     pz     px    dxy    dyz    dz2    dxz    dx2    tot
  1  0.000  0.243  0.000  0.243  0.000  0.082  0.000  0.082  0.171  0.821
 
band   7 # energy   13.13146499 # occ.  0.00000000
 
ion      s     py     pz     px    dxy    dyz    dz2    dxz    dx2    tot
  1  0.330  0.046  0.052  0.046  0.289  0.000  0.106  0.000  0.000  0.869
 
band   8 # energy   17.51783019 # occ.  0.00000000
 
ion      s     py     pz     px    dxy    dyz    dz2    dxz    dx2    tot
  1  0.197  0.022  0.281  0.022  0.000  0.098  0.069  0.098  0.000  0.787
 
band   9 # energy   26.95058099 # occ.  0.00000000
 
ion      s     py     pz     px    dxy    dyz    dz2    dxz    dx2    tot
  1  0.000  0.066  0.284  0.066  0.038  0.003  0.101  0.003  0.000  0.561
 
band  10 # energy   30.23495342 # occ.  0.00000000
 
ion      s     py     pz     px    dxy    dyz    dz2    dxz    dx2    tot
  1  0.043  0.054  0.003  0.054  0.006  0.202  0.291  0.202  0.000  0.857
 
band  11 # energy   32.64781133 # occ.  0.00000000
 
ion      s     py     pz     px    dxy    dyz    dz2    dxz    dx2    tot
  1  0.000  0.039  0.000  0.039  0.000  0.009  0.000  0.009  0.451  0.547
 
band  12 # energy   38.66115423 # occ.  0.00000000
 
ion      s     py     pz     px    dxy    dyz    dz2    dxz    dx2    tot
  1  0.074  0.136  0.001  0.136  0.131  0.234  0.152  0.234  0.000  1.099
 

 k-point   10 :    0.25000000 0.25000000 0.25000000     weight = 0.00925926

band   1 # energy    2.45604283 # occ.  1.00000000
 
ion      s     py     pz     px    dxy    dyz    dz2    dxz    dx2    tot
  1  0.000  0.037  0.037  0.037  0.266  0.266  0.000  0.266  0.000  0.909
 
band   2 # energy    2.45604748 # occ.  1.00000000
 
ion      s     py     pz     px    dxy    dyz    dz2    dxz    dx2    tot
  1  0.000  0.003  0.041  0.066  0.295  0.480  0.000  0.024  0.000  0.909
 
band   3 # energy    2.45604748 # occ.  1.00000000
 
ion      s     py     pz     px    dxy    dyz    dz2    dxz    dx2    tot
  1  0.000  0.070  0.033  0.007  0.238  0.053  0.000  0.509  0.000  0.909
 
band   4 # energy    4.82140196 # occ.  1.00000000
 
ion      s     py     pz     px    dxy    dyz    dz2    dxz    dx2    tot
  1  0.000  0.000  0.000  0.000  0.000  0.000  0.484  0.000  0.501  0.985
 
band   5 # energy    4.82140196 # occ.  1.00000000
 
ion      s     py     pz     px    dxy    dyz    dz2    dxz    dx2    tot
  1  0.000  0.000  0.000  0.000  0.000  0.000  0.501  0.000  0.484  0.985
 
band   6 # energy   14.16347888 # occ.  0.00000000
 
ion      s     py     pz     px    dxy    dyz    dz2    dxz    dx2    tot
  1  0.000  0.135  0.135  0.135  0.132  0.132  0.000  0.132  0.000  0.800
 
band   7 # energy   14.16348390 # occ.  0.00000000
 
ion      s     py     pz     px    dxy    dyz    dz2    dxz    dx2    tot
  1  0.000  0.109  0.255  0.041  0.248  0.040  0.000  0.107  0.000  0.800
 
band   8 # energy   14.16348390 # occ.  0.00000000
 
ion      s     py     pz     px    dxy    dyz    dz2    dxz    dx2    tot
  1  0.000  0.161  0.015  0.229  0.015  0.223  0.000  0.157  0.000  0.800
 
band   9 # energy   16.26838040 # occ.  0.00000000
 
ion      s     py     pz     px    dxy    dyz    dz2    dxz    dx2    tot
  1  0.799  0.000  0.000  0.000  0.000  0.000  0.000  0.000  0.000  0.799
 
band  10 # energy   44.33002667 # occ.  0.00000000
 
ion      s     py     pz     px    dxy    dyz    dz2    dxz    dx2    tot
  1  0.000  0.000  0.000  0.000  0.000  0.000  0.000  0.000  0.000  0.000
 
band  11 # energy   44.33003210 # occ.  0.00000000
 
ion      s     py     pz     px    dxy    dyz    dz2    dxz    dx2    tot
  1  0.000  0.000  0.000  0.000  0.000  0.000  0.000  0.000  0.000  0.000
 
band  12 # energy   44.33010969 # occ.  0.00000000
 
ion      s     py     pz     px    dxy    dyz    dz2    dxz    dx2    tot
  1  0.000  0.000  0.000  0.000  0.000  0.000  0.000  0.000  0.000  0.000
 

 k-point   11 :   -0.25000000 0.25000000 0.25000000     weight = 0.02777778

band   1 # energy    1.10507185 # occ.  1.00000000
 
ion      s     py     pz     px    dxy    dyz    dz2    dxz    dx2    tot
  1  0.276  0.000  0.000  0.198  0.000  0.000  0.074  0.000  0.222  0.770
 
band   2 # energy    2.75774062 # occ.  1.00000000
 
ion      s     py     pz     px    dxy    dyz    dz2    dxz    dx2    tot
  1  0.000  0.000  0.000  0.000  0.000  0.000  0.679  0.000  0.226  0.906
 
band   3 # energy    3.77656896 # occ.  1.00000000
 
ion      s     py     pz     px    dxy    dyz    dz2    dxz    dx2    tot
  1  0.000  0.014  0.014  0.000  0.464  0.000  0.000  0.464  0.000  0.957
 
band   4 # energy    3.77657150 # occ.  1.00000000
 
ion      s     py     pz     px    dxy    dyz    dz2    dxz    dx2    tot
  1  0.000  0.014  0.014  0.000  0.464  0.000  0.000  0.464  0.000  0.957
 
band   5 # energy    4.48791851 # occ.  1.09316069
 
ion      s     py     pz     px    dxy    dyz    dz2    dxz    dx2    tot
  1  0.000  0.000  0.000  0.000  0.000  0.973  0.000  0.000  0.000  0.973
 
band   6 # energy    5.86986868 # occ.  0.14642242
 
ion      s     py     pz     px    dxy    dyz    dz2    dxz    dx2    tot
  1  0.151  0.000  0.000  0.080  0.000  0.000  0.176  0.000  0.528  0.934
 
band   7 # energy   22.51656609 # occ.  0.00000000
 
ion      s     py     pz     px    dxy    dyz    dz2    dxz    dx2    tot
  1  0.000  0.249  0.249  0.000  0.199  0.000  0.000  0.199  0.000  0.896
 
band   8 # energy   22.51657670 # occ.  0.00000000
 
ion      s     py     pz     px    dxy    dyz    dz2    dxz    dx2    tot
  1  0.000  0.249  0.249  0.000  0.199  0.000  0.000  0.199  0.000  0.896
 
band   9 # energy   23.10186643 # occ.  0.00000000
 
ion      s     py     pz     px    dxy    dyz    dz2    dxz    dx2    tot
  1  0.000  0.000  0.000  0.000  0.000  0.000  0.516  0.000  0.172  0.688
 
band  10 # energy   25.36639375 # occ.  0.00000000
 
ion      s     py     pz     px    dxy    dyz    dz2    dxz    dx2    tot
  1  0.253  0.000  0.000  0.198  0.000  0.000  0.014  0.000  0.041  0.506
 
band  11 # energy   39.24323432 # occ.  0.00000000
 
ion      s     py     pz     px    dxy    dyz    dz2    dxz    dx2    tot
  1  0.000  0.138  0.126  0.000  0.082  0.000  0.000  0.074  0.000  0.421
 
band  12 # energy   39.24323786 # occ.  0.00000000
 
ion      s     py     pz     px    dxy    dyz    dz2    dxz    dx2    tot
  1  0.000  0.126  0.138  0.000  0.074  0.000  0.000  0.082  0.000  0.421
 

 k-point   12 :   -0.41666667 0.41666667 0.25000000     weight = 0.11111111

band   1 # energy    1.61514344 # occ.  1.00000000
 
ion      s     py     pz     px    dxy    dyz    dz2    dxz    dx2    tot
  1  0.042  0.001  0.000  0.061  0.097  0.000  0.591  0.000  0.071  0.864
 
band   2 # energy    2.06960210 # occ.  1.00000000
 
ion      s     py     pz     px    dxy    dyz    dz2    dxz    dx2    tot
  1  0.006  0.025  0.000  0.040  0.005  0.000  0.127  0.000  0.671  0.874
 
band   3 # energy    3.75400513 # occ.  1.00000000
 
ion      s     py     pz     px    dxy    dyz    dz2    dxz    dx2    tot
  1  0.000  0.000  0.024  0.000  0.000  0.366  0.000  0.565  0.000  0.955
 
band   4 # energy    4.28488740 # occ.  1.00000000
 
ion      s     py     pz     px    dxy    dyz    dz2    dxz    dx2    tot
  1  0.019  0.020  0.000  0.001  0.765  0.000  0.143  0.000  0.007  0.955
 
band   5 # energy    5.58161639 # occ.  0.77114751
 
ion      s     py     pz     px    dxy    dyz    dz2    dxz    dx2    tot
  1  0.000  0.000  0.003  0.000  0.000  0.607  0.000  0.375  0.000  0.985
 
band   6 # energy    9.00618947 # occ. -0.01468994
 
ion      s     py     pz     px    dxy    dyz    dz2    dxz    dx2    tot
  1  0.158  0.054  0.000  0.306  0.039  0.000  0.047  0.000  0.237  0.842
 
band   7 # energy   15.60794595 # occ.  0.00000000
 
ion      s     py     pz     px    dxy    dyz    dz2    dxz    dx2    tot
  1  0.170  0.344  0.000  0.005  0.193  0.000  0.075  0.000  0.050  0.838
 
band   8 # energy   19.69956012 # occ.  0.00000000
 
ion      s     py     pz     px    dxy    dyz    dz2    dxz    dx2    tot
  1  0.000  0.000  0.608  0.000  0.000  0.035  0.000  0.193  0.000  0.836
 
band   9 # energy   22.81379247 # occ.  0.00000000
 
ion      s     py     pz     px    dxy    dyz    dz2    dxz    dx2    tot
  1  0.123  0.000  0.000  0.028  0.008  0.000  0.521  0.000  0.011  0.693
 
band  10 # energy   27.21592326 # occ.  0.00000000
 
ion      s     py     pz     px    dxy    dyz    dz2    dxz    dx2    tot
  1  0.064  0.169  0.000  0.007  0.031  0.000  0.017  0.000  0.383  0.672
 
band  11 # energy   34.42883229 # occ.  0.00000000
 
ion      s     py     pz     px    dxy    dyz    dz2    dxz    dx2    tot