<?xml version="1.0" encoding="ISO-8859-1"?>
<modeling>
 <generator>
  <i name="program" type="string">vasp </i>
  <i name="version" type="string">5.4.1  </i>
  <i name="subversion" type="string">24Jun15 (build Jul 19 2016 16:50:41) complex                          parallel </i>
  <i name="platform" type="string">IFC91_ompi </i>
  <i name="date" type="string">2019 10 17 </i>
  <i name="time" type="string">11:04:11 </i>
 </generator>
 <incar>
  <i type="string" name="SYSTEM"> Fe BCC</i>
  <i type="string" name="PREC">accurate</i>
  <i type="int" name="ISPIN">     2</i>
  <i name="EDIFF">      0.00000100</i>
  <i name="ENCUT">    300.00000000</i>
  <v name="MAGMOM">      4.00000000</v>
  <i type="int" name="ISMEAR">    -5</i>
  <i type="logical" name="LORBIT"> F  </i>
  <v type="int" name="KPOINT_BSE">    -1     0     0     0</v>
 </incar>
 <kpoints>
  <generation param="Monkhorst-Pack">
   <v type="int" name="divisions">       6        6        6 </v>
   <v name="usershift">      0.00000000       0.00000000       0.00000000 </v>
   <v name="genvec1">      0.16666667       0.00000000       0.00000000 </v>
   <v name="genvec2">      0.00000000       0.16666667       0.00000000 </v>
   <v name="genvec3">      0.00000000       0.00000000       0.16666667 </v>
   <v name="shift">      0.50000000       0.50000000       0.50000000 </v>
  </generation>
  <varray name="kpointlist" >
   <v>       0.08333333       0.08333333       0.08333333 </v>
   <v>       0.25000000       0.08333333       0.08333333 </v>
   <v>       0.41666667       0.08333333       0.08333333 </v>
   <v>      -0.08333333       0.08333333       0.08333333 </v>
   <v>       0.25000000       0.25000000       0.08333333 </v>
   <v>      -0.25000000       0.25000000       0.08333333 </v>
   <v>      -0.41666667       0.41666667       0.08333333 </v>
   <v>      -0.25000000       0.41666667       0.08333333 </v>
   <v>      -0.41666667      -0.41666667       0.08333333 </v>
   <v>       0.25000000       0.25000000       0.25000000 </v>
   <v>      -0.25000000       0.25000000       0.25000000 </v>
   <v>      -0.41666667       0.41666667       0.25000000 </v>
   <v>      -0.41666667      -0.41666667       0.25000000 </v>
   <v>      -0.41666667       0.41666667       0.41666667 </v>
  </varray>
  <varray name="weights" >
   <v>       0.03703704 </v>
   <v>       0.11111111 </v>
   <v>       0.05555556 </v>
   <v>       0.02777778 </v>
   <v>       0.11111111 </v>
   <v>       0.11111111 </v>
   <v>       0.11111111 </v>
   <v>       0.11111111 </v>
   <v>       0.11111111 </v>
   <v>       0.00925926 </v>
   <v>       0.02777778 </v>
   <v>       0.11111111 </v>
   <v>       0.03703704 </v>
   <v>       0.02777778 </v>
  </varray>
  <varray name="tetrahedronlist"  type="int" >
   <v type="int" >        4        1        2        2        5 </v>
   <v type="int" >        8        2        2        5        5 </v>
   <v type="int" >        4        2        5        5       10 </v>
   <v type="int" >       12        2        3        5        5 </v>
   <v type="int" >        8        2        5        5        5 </v>
   <v type="int" >       16        5        5        5       10 </v>
   <v type="int" >        8        3        5        5        5 </v>
   <v type="int" >        8        5        5        5        5 </v>
   <v type="int" >        4        2        2        3        5 </v>
   <v type="int" >        4        2        2        2        5 </v>
   <v type="int" >        8        2        2        5        8 </v>
   <v type="int" >        4        2        5        5        8 </v>
   <v type="int" >       16        1        2        2        6 </v>
   <v type="int" >        4        2        2        2        6 </v>
   <v type="int" >       12        2        2        6        8 </v>
   <v type="int" >       16        1        2        6        6 </v>
   <v type="int" >        4        2        6        6       11 </v>
   <v type="int" >        4        2        6        8       11 </v>
   <v type="int" >       20        1        4        6        6 </v>
   <v type="int" >        4        1        6        6        6 </v>
   <v type="int" >        4        6        6        6       11 </v>
   <v type="int" >        8        4        6        6        6 </v>
   <v type="int" >        4        6        6        6        8 </v>
   <v type="int" >        4        6        6        8       11 </v>
   <v type="int" >        8        1        2        4        6 </v>
   <v type="int" >        8        2        4        6        6 </v>
   <v type="int" >        8        2        6        6        8 </v>
   <v type="int" >        4        2        2        5        6 </v>
   <v type="int" >        4        2        5        6        8 </v>
   <v type="int" >       16        3        5        5       10 </v>
   <v type="int" >        4        3        5        9       10 </v>
   <v type="int" >        4        2        5        5        7 </v>
   <v type="int" >        8        3        5        5        7 </v>
   <v type="int" >        8        3        5        7        9 </v>
   <v type="int" >       12        2        5        7        8 </v>
   <v type="int" >        4        5        7        8       12 </v>
   <v type="int" >        4        5        7        9       12 </v>
   <v type="int" >        4        2        6        8        8 </v>
   <v type="int" >        4        2        7        8        8 </v>
   <v type="int" >        4        7        8        8       12 </v>
   <v type="int" >        8        6        8        8       11 </v>
   <v type="int" >        8        8        8       11       12 </v>
   <v type="int" >        4        8        8       12       12 </v>
   <v type="int" >        4        6        6        7       11 </v>
   <v type="int" >       12        6        7        8       11 </v>
   <v type="int" >       12        7        8       11       12 </v>
   <v type="int" >        4        7        8        9       11 </v>
   <v type="int" >        4        7        9       11       12 </v>
   <v type="int" >        4        2        3        6        8 </v>
   <v type="int" >        4        3        6        7        8 </v>
   <v type="int" >       12        3        7        8        9 </v>
   <v type="int" >       16        2        3        5        8 </v>
   <v type="int" >        8        3        5        5        8 </v>
   <v type="int" >       16        3        5        8        9 </v>
   <v type="int" >        4        3        7        9        9 </v>
   <v type="int" >        8        7        9        9       12 </v>
   <v type="int" >       16        9        9       12       13 </v>
   <v type="int" >       16        7        8        9       12 </v>
   <v type="int" >        8        8        9       12       12 </v>
   <v type="int" >        4        9       12       12       12 </v>
   <v type="int" >       16        9       12       12       13 </v>
   <v type="int" >        4        7        7        8       12 </v>
   <v type="int" >       12        7        9       12       12 </v>
   <v type="int" >        8        7        7        9       12 </v>
   <v type="int" >        4        7        8       12       12 </v>
   <v type="int" >       16        2        3        7        9 </v>
   <v type="int" >        8        2        7        7        9 </v>
   <v type="int" >        8        2        7        8        9 </v>
   <v type="int" >       16        2        3        5        9 </v>
   <v type="int" >        4        2        2        5        9 </v>
   <v type="int" >        4        2        2        8        9 </v>
   <v type="int" >        8        8        9        9       13 </v>
   <v type="int" >       12        8        9       12       13 </v>
   <v type="int" >        4        8       11       12       13 </v>
   <v type="int" >        4        6        7        9       12 </v>
   <v type="int" >        4        6        8        9       12 </v>
   <v type="int" >        8        6        8       11       12 </v>
   <v type="int" >        8        6        7        8       12 </v>
   <v type="int" >        4        6        6        8       12 </v>
   <v type="int" >        4        6        6       11       12 </v>
   <v type="int" >        4        1        2        7        8 </v>
   <v type="int" >        4        1        6        7        8 </v>
   <v type="int" >        8        1        6        6        8 </v>
   <v type="int" >        8        1        2        2        8 </v>
   <v type="int" >       12        1        2        6        8 </v>
   <v type="int" >        4        4        6        8       11 </v>
   <v type="int" >        4        4        6        6       11 </v>
   <v type="int" >        4        1        4        6       11 </v>
   <v type="int" >        4        4        4        6        6 </v>
   <v type="int" >       12        1        4        4        6 </v>
   <v type="int" >        6        1        1        4        4 </v>
   <v type="int" >        8        1        1        4        6 </v>
   <v type="int" >        4        1        1        2        6 </v>
   <v type="int" >        4        2        3        5       10 </v>
   <v type="int" >       12        3        5        5        9 </v>
   <v type="int" >        8        5        5        5        9 </v>
   <v type="int" >       12        2        3        7        8 </v>
   <v type="int" >        4        3        7        8       12 </v>
   <v type="int" >        4        3        8        9       12 </v>
   <v type="int" >        4        2        6        7       11 </v>
   <v type="int" >        4        2        7        8       11 </v>
   <v type="int" >        4        7       11       12       12 </v>
   <v type="int" >        4        6        6        8        8 </v>
   <v type="int" >        4        6        7        8        8 </v>
   <v type="int" >        4        7        8        8        9 </v>
   <v type="int" >        4        8        8        9       12 </v>
   <v type="int" >        4        2        5        6        7 </v>
   <v type="int" >        4        5        6        7        8 </v>
   <v type="int" >       12        5        7        8        9 </v>
   <v type="int" >        8        2        3        5        7 </v>
   <v type="int" >        4        5        5        7        9 </v>
   <v type="int" >        4        5        5        9       10 </v>
   <v type="int" >        8        5        5        9        9 </v>
   <v type="int" >        4        5        9        9       13 </v>
   <v type="int" >        4        5        8        9       12 </v>
   <v type="int" >        4        5        9        9       12 </v>
   <v type="int" >        8        9       12       12       14 </v>
   <v type="int" >        8        9       12       13       14 </v>
   <v type="int" >        4        8       11       12       12 </v>
   <v type="int" >        4        8       12       12       12 </v>
   <v type="int" >        8       12       12       12       14 </v>
   <v type="int" >        4       11       12       12       12 </v>
   <v type="int" >        4       12       12       12       13 </v>
   <v type="int" >       20       12       12       13       14 </v>
   <v type="int" >        4        8        9       11       12 </v>
   <v type="int" >        4        9       11       12       12 </v>
   <v type="int" >       12        8        9        9       12 </v>
   <v type="int" >        4        9        9        9       12 </v>
   <v type="int" >        4        5        5        8        9 </v>
   <v type="int" >        8        5        8        9        9 </v>
   <v type="int" >        4        5        9        9        9 </v>
   <v type="int" >        4        3        5        9        9 </v>
   <v type="int" >        4        9       12       13       13 </v>
   <v type="int" >        8       12       13       13       14 </v>
   <v type="int" >        6       13       13       14       14 </v>
   <v type="int" >       12       12       13       14       14 </v>
   <v type="int" >        4       12       12       14       14 </v>
   <v type="int" >        8        8       12       12       13 </v>
   <v type="int" >        4        7        8        9       13 </v>
   <v type="int" >        4        7        8       12       13 </v>
   <v type="int" >        4        2        5        9        9 </v>
   <v type="int" >        4        2        8        9        9 </v>
   <v type="int" >        4       11       12       13       14 </v>
   <v type="int" >        4       11       12       12       14 </v>
   <v type="int" >        4        8       11       12       14 </v>
   <v type="int" >        4        6        8       12       12 </v>
   <v type="int" >        4        6       11       12       12 </v>
   <v type="int" >        4        2        6        7       12 </v>
   <v type="int" >        4        2        6        8       12 </v>
   <v type="int" >       16        2        6        7        8 </v>
   <v type="int" >        4        6        6        7        8 </v>
   <v type="int" >       12        2        6        6        7 </v>
   <v type="int" >        8        2        6        7        7 </v>
   <v type="int" >        4        6        7        7        8 </v>
   <v type="int" >        4        1        6        8       11 </v>
   <v type="int" >        4        2        6        6        6 </v>
   <v type="int" >        8        2        2        6        7 </v>
   <v type="int" >        4        2        2        3        7 </v>
   <v type="int" >        8        2        5        5        9 </v>
   <v type="int" >        8        2        5        8        9 </v>
   <v type="int" >        4        2        7        9       12 </v>
   <v type="int" >        4        2        8        9       12 </v>
   <v type="int" >        4        3        7        7       12 </v>
   <v type="int" >        4        3        7        9       12 </v>
   <v type="int" >        4        7        9       12       13 </v>
   <v type="int" >        4        7       12       12       13 </v>
   <v type="int" >        6        9        9       12       12 </v>
   <v type="int" >        4        7        8        9        9 </v>
   <v type="int" >        2        7        7        9        9 </v>
   <v type="int" >        8        3        5        7        7 </v>
   <v type="int" >        4        5        7        7        9 </v>
   <v type="int" >        4        2        2        5        7 </v>
   <v type="int" >        4        5        8        9       13 </v>
   <v type="int" >        4        8       12       13       14 </v>
   <v type="int" >        4       12       14       14       14 </v>
   <v type="int" >        6       12       12       13       13 </v>
   <v type="int" >        4        3        8        9        9 </v>
   <v type="int" >        8        3        7        7        8 </v>
   <v type="int" >        4       13       14       14       14 </v>
   <v type="int" >        2       14       14       14       14 </v>
   <v type="int" >        4        3        7        7        9 </v>
   <v type="int" >        4        7        7        7        9 </v>
   <v type="int" >        8        3        7        7        7 </v>
   <v type="int" >        4        2        3        3        7 </v>
   <v type="int" >        4        3        3        7        7 </v>
   <v type="int" >        4        1        4        6        8 </v>
   <v type="int" >        4        1        2        5        8 </v>
   <v type="int" >        4        2        6        7        9 </v>
   <v type="int" >        4        2        6        8        9 </v>
   <v type="int" >        4        2        2        3        8 </v>
   <v type="int" >        6        2        2        6        6 </v>
   <v type="int" >        6        1        1        6        6 </v>
   <v type="int" >        4        4        4        4        6 </v>
   <v type="int" >        4        5        7        9        9 </v>
   <v type="int" >        4        2        5        7        7 </v>
   <v type="int" >        4        2        2        7        8 </v>
   <v type="int" >        2        2        2        7        7 </v>
   <v type="int" >        4        1        6        6        7 </v>
   <v type="int" >        4        1        2        6        7 </v>
   <v type="int" >        4        2        3        6        7 </v>
   <v type="int" >        4        3        6        7        7 </v>
   <v type="int" >        4        3        3        7        9 </v>
   <v type="int" >        4        2        7        7        7 </v>
   <v type="int" >        4        2        3        7        7 </v>
   <v type="int" >        4        1        4        4        4 </v>
   <v type="int" >        2        4        4        4        4 </v>
  </varray>
  <i name="volumeweight">      0.00077160 </i>
 </kpoints>
 <parameters>
  <separator name="general" >
   <i type="string" name="SYSTEM">Fe BCC</i>
   <i type="logical" name="LCOMPAT"> F  </i>
  </separator>
  <separator name="electronic" >
   <i type="string" name="PREC">accura</i>
   <i name="ENMAX">    300.00000000</i>
   <i name="ENAUG">    511.36800000</i>
   <i name="EDIFF">      0.00000100</i>
   <i type="int" name="IALGO">    38</i>
   <i type="int" name="IWAVPR">    10</i>
   <i type="int" name="NBANDS">    12</i>
   <i name="NELECT">      8.00000000</i>
   <i type="int" name="TURBO">     0</i>
   <i type="int" name="IRESTART">     0</i>
   <i type="int" name="NREBOOT">     0</i>
   <i type="int" name="NMIN">     0</i>
   <i name="EREF">      0.00000000</i>
   <separator name="electronic smearing" >
    <i type="int" name="ISMEAR">    -5</i>
    <i name="SIGMA">      0.20000000</i>
    <i name="KSPACING">      0.50000000</i>
    <i type="logical" name="KGAMMA"> T  </i>
   </separator>
   <separator name="electronic projectors" >
    <i type="logical" name="LREAL"> F  </i>
    <v name="ROPT">      0.00000000</v>
    <i type="int" name="LMAXPAW">  -100</i>
    <i type="int" name="LMAXMIX">     2</i>
    <i type="logical" name="NLSPLINE"> F  </i>
   </separator>
   <separator name="electronic startup" >
    <i type="int" name="ISTART">     0</i>
    <i type="int" name="ICHARG">     2</i>
    <i type="int" name="INIWAV">     1</i>
   </separator>
   <separator name="electronic spin" >
    <i type="int" name="ISPIN">     2</i>
    <i type="logical" name="LNONCOLLINEAR"> F  </i>
    <v name="MAGMOM">      4.00000000</v>
    <i name="NUPDOWN">     -1.00000000</i>
    <i type="logical" name="LSORBIT"> F  </i>
    <v name="SAXIS">      0.00000000      0.00000000      1.00000000</v>
    <i type="logical" name="LSPIRAL"> F  </i>
    <v name="QSPIRAL">      0.00000000      0.00000000      0.00000000</v>
    <i type="logical" name="LZEROZ"> F  </i>
   </separator>
   <separator name="electronic exchange-correlation" >
    <i type="logical" name="LASPH"> F  </i>
    <i type="logical" name="LMETAGGA"> F  </i>
   </separator>
   <separator name="electronic convergence" >
    <i type="int" name="NELM">    60</i>
    <i type="int" name="NELMDL">    -5</i>
    <i type="int" name="NELMIN">     2</i>
    <i name="ENINI">    300.00000000</i>
    <separator name="electronic convergence detail" >
     <i type="logical" name="LDIAG"> T  </i>
     <i type="logical" name="LSUBROT"> F  </i>
     <i name="WEIMIN">      0.00000000</i>
     <i name="EBREAK">      0.00000002</i>
     <i name="DEPER">      0.30000000</i>
     <i type="int" name="NRMM">     4</i>
     <i name="TIME">      0.40000000</i>
    </separator>
   </separator>
   <separator name="electronic mixer" >
    <i name="AMIX">      0.40000000</i>
    <i name="BMIX">      1.00000000</i>
    <i name="AMIN">      0.10000000</i>
    <i name="AMIX_MAG">      1.60000000</i>
    <i name="BMIX_MAG">      1.00000000</i>
    <separator name="electronic mixer details" >
     <i type="int" name="IMIX">     4</i>
     <i type="logical" name="MIXFIRST"> F  </i>
     <i type="int" name="MAXMIX">   -45</i>
     <i name="WC">    100.00000000</i>
     <i type="int" name="INIMIX">     1</i>
     <i type="int" name="MIXPRE">     1</i>
     <i type="int" name="MREMOVE">     5</i>
    </separator>
   </separator>
   <separator name="electronic dipolcorrection" >
    <i type="logical" name="LDIPOL"> F  </i>
    <i type="logical" name="LMONO"> F  </i>
    <i type="int" name="IDIPOL">     0</i>
    <i name="EPSILON">      1.00000000</i>
    <v name="DIPOL">   -100.00000000   -100.00000000   -100.00000000</v>
    <i name="EFIELD">      0.00000000</i>
   </separator>
  </separator>
  <separator name="grids" >
   <i type="int" name="NGX">    14</i>
   <i type="int" name="NGY">    14</i>
   <i type="int" name="NGZ">    14</i>
   <i type="int" name="NGXF">    28</i>
   <i type="int" name="NGYF">    28</i>
   <i type="int" name="NGZF">    28</i>
   <i type="logical" name="ADDGRID"> F  </i>
  </separator>
  <separator name="ionic" >
   <i type="int" name="NSW">     0</i>
   <i type="int" name="IBRION">    -1</i>
   <i type="int" name="ISIF">     2</i>
   <i name="PSTRESS">      0.00000000</i>
   <i name="EDIFFG">      0.00001000</i>
   <i type="int" name="NFREE">     0</i>
   <i name="POTIM">      0.50000000</i>
   <i name="SMASS">     -3.00000000</i>
   <i name="SCALEE">      1.00000000</i>
  </separator>
  <separator name="ionic md" >
   <i name="TEBEG">      0.00010000</i>
   <i name="TEEND">      0.00010000</i>
   <i type="int" name="NBLOCK">     1</i>
   <i type="int" name="KBLOCK">     1</i>
   <i type="int" name="NPACO">   256</i>
   <i name="APACO">     16.00000000</i>
  </separator>
  <separator name="symmetry" >
   <i type="int" name="ISYM">     2</i>
   <i name="SYMPREC">      0.00001000</i>
  </separator>
  <separator name="dos" >
   <i type="logical" name="LORBIT"> F  </i>
   <v name="RWIGS">     -1.00000000</v>
   <i type="int" name="NEDOS">   301</i>
   <i name="EMIN">     10.00000000</i>
   <i name="EMAX">    -10.00000000</i>
   <i name="EFERMI">      0.00000000</i>
  </separator>
  <separator name="writing" >
   <i type="int" name="NWRITE">     2</i>
   <i type="logical" name="LWAVE"> T  </i>
   <i type="logical" name="LCHARG"> T  </i>
   <i type="logical" name="LPARD"> F  </i>
   <i type="logical" name="LVTOT"> F  </i>
   <i type="logical" name="LVHAR"> F  </i>
   <i type="logical" name="LELF"> F  </i>
   <i type="logical" name="LOPTICS"> F  </i>
   <v name="STM">      0.00000000      0.00000000      0.00000000      0.00000000      0.00000000      0.00000000      0.00000000</v>
  </separator>
  <separator name="performance" >
   <i type="int" name="NPAR">     4</i>
   <i type="int" name="NSIM">     4</i>
   <i type="int" name="NBLK">    -1</i>
   <i type="logical" name="LPLANE"> T  </i>
   <i type="logical" name="LSCALAPACK"> F  </i>
   <i type="logical" name="LSCAAWARE"> F  </i>
   <i type="logical" name="LSCALU"> F  </i>
   <i type="logical" name="LASYNC"> F  </i>
   <i type="logical" name="LORBITALREAL"> F  </i>
  </separator>
  <separator name="miscellaneous" >
   <i type="int" name="IDIOT">     3</i>
   <i type="logical" name="LMUSIC"> F  </i>
   <v name="POMASS">     55.84700000</v>
   <v name="DARWINR">      0.00000000</v>
   <v name="DARWINV">      1.00000000</v>
   <i type="logical" name="LCORR"> T  </i>
  </separator>
  <i type="logical" name="GGA_COMPAT"> T  </i>
  <i type="logical" name="LBERRY"> F  </i>
  <i type="int" name="ICORELEVEL">     0</i>
  <i type="logical" name="LDAU"> F  </i>
  <i type="int" name="I_CONSTRAINED_M">     0</i>
  <separator name="electronic exchange-correlation" >
   <i type="string" name="GGA">--</i>
   <i type="int" name="VOSKOWN">     0</i>
   <i type="logical" name="LHFCALC"> F  </i>
   <i type="string" name="PRECFOCK"></i>
   <i type="logical" name="LSYMGRAD"> F  </i>
   <i type="logical" name="LHFONE"> F  </i>
   <i type="logical" name="LRHFCALC"> F  </i>
   <i type="logical" name="LTHOMAS"> F  </i>
   <i type="logical" name="LMODELHF"> F  </i>
   <i name="ENCUT4O">     -1.00000000</i>
   <i type="int" name="EXXOEP">     0</i>
   <i type="int" name="FOURORBIT">     0</i>
   <i name="AEXX">      0.00000000</i>
   <i name="HFALPHA">      0.00000000</i>
   <i name="MCALPHA">      0.00000000</i>
   <i name="ALDAX">      1.00000000</i>
   <i name="AGGAX">      1.00000000</i>
   <i name="ALDAC">      1.00000000</i>
   <i name="AGGAC">      1.00000000</i>
   <i type="int" name="NKREDX">     1</i>
   <i type="int" name="NKREDY">     1</i>
   <i type="int" name="NKREDZ">     1</i>
   <i type="logical" name="SHIFTRED"> F  </i>
   <i type="logical" name="ODDONLY"> F  </i>
   <i type="logical" name="EVENONLY"> F  </i>
   <i type="int" name="LMAXFOCK">     0</i>
   <i type="int" name="NMAXFOCKAE">     0</i>
   <i type="logical" name="LFOCKAEDFT"> F  </i>
   <i name="HFSCREEN">      0.00000000</i>
   <i name="HFSCREENC">      0.00000000</i>
   <i type="int" name="NBANDSGWLOW">     0</i>
  </separator>
  <separator name="vdW DFT" >
   <i type="logical" name="LUSE_VDW"> F  </i>
   <i name="Zab_VDW">     -0.84910000</i>
   <i name="PARAM1">      0.12340000</i>
   <i name="PARAM2">      1.00000000</i>
   <i name="PARAM3">      0.00000000</i>
  </separator>
  <separator name="model GW" >
   <i type="int" name="MODEL_GW">     0</i>
   <i name="MODEL_EPS0">      6.94473750</i>
   <i name="MODEL_ALPHA">      1.00000000</i>
  </separator>
  <separator name="linear response parameters" >
   <i type="logical" name="LEPSILON"> F  </i>
   <i type="logical" name="LRPA"> F  </i>
   <i type="logical" name="LNABLA"> F  </i>
   <i type="logical" name="LVEL"> F  </i>
   <i type="int" name="KINTER">     0</i>
   <i name="CSHIFT">      0.10000000</i>
   <i name="OMEGAMAX">     -1.00000000</i>
   <i name="DEG_THRESHOLD">      0.00200000</i>
  </separator>
  <separator name="orbital magnetization" >
   <i type="logical" name="NUCIND"> F  </i>
   <v name="MAGPOS">      0.00000000      0.00000000      0.00000000</v>
   <i type="logical" name="LNICSALL"> T  </i>
   <i type="logical" name="ORBITALMAG"> F  </i>
   <i type="logical" name="LMAGBLOCH"> F  </i>
   <i type="logical" name="LCHIMAG"> F  </i>
   <i type="logical" name="LGAUGE"> T  </i>
   <i type="int" name="MAGATOM">     0</i>
   <v name="MAGDIPOL">      0.00000000      0.00000000      0.00000000</v>
   <v name="AVECCONST">      0.00000000      0.00000000      0.00000000</v>
  </separator>
  <separator name="response functions" >
   <i type="logical" name="LADDER"> F  </i>
   <i type="logical" name="LFXC"> F  </i>
   <i type="logical" name="LHARTREE"> T  </i>
   <i type="int" name="IBSE">     0</i>
   <v type="int" name="KPOINT">    -1     0     0     0</v>
   <i type="logical" name="LTCTE"> F  </i>
   <i type="logical" name="LTETE"> F  </i>
   <i type="logical" name="LTRIPLET"> F  </i>
   <i type="logical" name="LFXCEPS"> F  </i>
   <i type="logical" name="LFXHEG"> F  </i>
   <i type="int" name="NATURALO">     0</i>
   <i type="logical" name="L2ORDER"> F  </i>
   <i type="logical" name="LUSEW"> F  </i>
   <i name="ENCUTGW">     -2.00000000</i>
   <i name="ENCUTGWSOFT">     -2.00000000</i>
   <i name="ENCUTLF">     -1.00000000</i>
   <i type="int" name="LMAXMP2">    -1</i>
   <i name="SCISSOR">      0.00000000</i>
   <i type="int" name="NOMEGA">     0</i>
   <i type="int" name="NOMEGAR">     0</i>
   <i type="int" name="NBANDSGW">    -1</i>
   <i type="int" name="NBANDSO">    -1</i>
   <i type="int" name="NBANDSV">    -1</i>
   <i type="int" name="NELM">     1</i>
   <i type="int" name="NELMHF">     1</i>
   <i type="int" name="DIM">     3</i>
   <i type="int" name="ANTIRES">     0</i>
   <i name="OMEGAMAX">    -30.00000000</i>
   <i name="OMEGAMIN">    -30.00000000</i>
   <i name="OMEGATL">   -200.00000000</i>
   <i type="int" name="OMEGAGRID">     0</i>
   <i name="CSHIFT">     -0.10000000</i>
   <i type="logical" name="SELFENERGY"> F  </i>
   <i type="logical" name="LSPECTRAL"> F  </i>
   <i type="logical" name="LSPECTRALGW"> F  </i>
   <i type="logical" name="LSINGLES"> F  </i>
   <i type="logical" name="LFERMIGW"> F  </i>
   <i type="logical" name="ODDONLYGW"> F  </i>
   <i type="logical" name="EVENONLYGW"> F  </i>
   <i type="int" name="NKREDLFX">     1</i>
   <i type="int" name="NKREDLFY">     1</i>
   <i type="int" name="NKREDLFZ">     1</i>
   <i type="int" name="MAXMEM">  1800</i>
   <i type="int" name="TELESCOPE">     0</i>
   <i type="int" name="TAUPAR">     1</i>
   <i type="int" name="OMEGAPAR">    -1</i>
   <i name="LAMBDA">      1.00000000</i>
  </separator>
  <separator name="External order field" >
   <i name="OFIELD_KAPPA">      0.00000000</i>
   <v name="OFIELD_K">      0.00000000      0.00000000      0.00000000</v>
   <i name="OFIELD_Q6_NEAR">      0.00000000</i>
   <i name="OFIELD_Q6_FAR">      0.00000000</i>
   <i name="OFIELD_A">      0.00000000</i>
  </separator>
 </parameters>
 <atominfo>
  <atoms>       1 </atoms>
  <types>       1 </types>
  <array name="atoms" >
   <dimension dim="1">ion</dimension>
   <field type="string">element</field>
   <field type="int">atomtype</field>
   <set>
    <rc><c>Fe</c><c>   1</c></rc>
   </set>
  </array>
  <array name="atomtypes" >
   <dimension dim="1">type</dimension>
   <field type="int">atomspertype</field>
   <field type="string">element</field>
   <field>mass</field>
   <field>valence</field>
   <field type="string">pseudopotential</field>
   <set>
    <rc><c>   1</c><c>Fe</c><c>     55.84700000</c><c>      8.00000000</c><c>  PAW_PBE Fe 06Sep2000                  </c></rc>
   </set>
  </array>
 </atominfo>
 <structure name="initialpos" >
  <crystal>
   <varray name="basis" >
    <v>      -1.42500000       1.42500000       1.42500000 </v>
    <v>       1.42500000      -1.42500000       1.42500000 </v>
    <v>       1.42500000       1.42500000      -1.42500000 </v>
   </varray>
   <i name="volume">     11.57456250 </i>
   <varray name="rec_basis" >
    <v>       0.00000000       0.35087719       0.35087719 </v>
    <v>       0.35087719       0.00000000       0.35087719 </v>
    <v>       0.35087719       0.35087719       0.00000000 </v>
   </varray>
  </crystal>
  <varray name="positions" >
   <v>       0.00000000       0.00000000       0.00000000 </v>
  </varray>
 </structure>
 <calculation>
  <scstep>
   <time name="dav">    1.90    1.21</time>
   <time name="total">    1.98    1.26</time>
   <energy>
    <i name="alphaZ">     59.71178263 </i>
    <i name="ewald">   -588.39789044 </i>
    <i name="hartreedc">   -112.96750494 </i>
    <i name="XCdc">      5.94991612 </i>
    <i name="pawpsdc">    552.89180568 </i>
    <i name="pawaedc">   -560.64780826 </i>
    <i name="eentropy">      0.00000000 </i>
    <i name="bandstr">     61.80515219 </i>
    <i name="atom">    594.28837649 </i>
    <i name="e_fr_energy">     12.63382948 </i>
    <i name="e_wo_entrp">     12.63382948 </i>
    <i name="e_0_energy">     12.63382948 </i>
   </energy>
  </scstep>
  <scstep>
   <time name="dav">    1.92    1.21</time>
   <time name="total">    1.94    1.22</time>
   <energy>
    <i name="e_fr_energy">     -8.29602645 </i>
    <i name="e_wo_entrp">     -8.29602645 </i>
    <i name="e_0_energy">     -8.29602645 </i>
   </energy>
  </scstep>
  <scstep>
   <time name="dav">    2.03    1.26</time>
   <time name="total">    2.05    1.27</time>
   <energy>
    <i name="e_fr_energy">     -8.67359055 </i>
    <i name="e_wo_entrp">     -8.67359055 </i>
    <i name="e_0_energy">     -8.67359055 </i>
   </energy>
  </scstep>
  <scstep>
   <time name="dav">    2.25    1.41</time>
   <time name="total">    2.30    1.44</time>
   <energy>
    <i name="e_fr_energy">     -8.67486867 </i>
    <i name="e_wo_entrp">     -8.67486867 </i>
    <i name="e_0_energy">     -8.67486867 </i>
   </energy>
  </scstep>
  <scstep>
   <time name="dav">    2.31    1.45</time>
   <time name="total">    2.37    1.48</time>
   <energy>
    <i name="e_fr_energy">     -8.67487684 </i>
    <i name="e_wo_entrp">     -8.67487684 </i>
    <i name="e_0_energy">     -8.67487684 </i>
   </energy>
  </scstep>
  <scstep>
   <time name="dav">    1.73    1.09</time>
   <time name="total">    1.80    1.14</time>
   <energy>
    <i name="e_fr_energy">     -8.28121059 </i>
    <i name="e_wo_entrp">     -8.28121059 </i>
    <i name="e_0_energy">     -8.28121059 </i>
   </energy>
  </scstep>
  <scstep>
   <time name="dav">    2.14    1.39</time>
   <time name="total">    2.29    1.48</time>
   <energy>
    <i name="e_fr_energy">     -8.23382354 </i>
    <i name="e_wo_entrp">     -8.23382354 </i>
    <i name="e_0_energy">     -8.23382354 </i>
   </energy>
  </scstep>
  <scstep>
   <time name="dav">    1.91    1.22</time>
   <time name="total">    2.00    1.28</time>
   <energy>
    <i name="e_fr_energy">     -8.22609612 </i>
    <i name="e_wo_entrp">     -8.22609612 </i>
    <i name="e_0_energy">     -8.22609612 </i>
   </energy>
  </scstep>
  <scstep>
   <time name="dav">    2.19    1.39</time>
   <time name="total">    2.30    1.46</time>
   <energy>
    <i name="e_fr_energy">     -8.21748735 </i>
    <i name="e_wo_entrp">     -8.21748735 </i>
    <i name="e_0_energy">     -8.21748735 </i>
   </energy>
  </scstep>
  <scstep>
   <time name="dav">    2.01    1.28</time>
   <time name="total">    2.10    1.33</time>
   <energy>
    <i name="e_fr_energy">     -8.21758347 </i>
    <i name="e_wo_entrp">     -8.21758347 </i>
    <i name="e_0_energy">     -8.21758347 </i>
   </energy>
  </scstep>
  <scstep>
   <time name="dav">    1.75    1.06</time>
   <time name="total">    1.84    1.12</time>
   <energy>
    <i name="e_fr_energy">     -8.21767287 </i>
    <i name="e_wo_entrp">     -8.21767287 </i>
    <i name="e_0_energy">     -8.21767287 </i>
   </energy>
  </scstep>
  <scstep>
   <time name="dav">    2.00    1.27</time>
   <time name="total">    2.10    1.34</time>
   <energy>
    <i name="e_fr_energy">     -8.21770655 </i>
    <i name="e_wo_entrp">     -8.21770655 </i>
    <i name="e_0_energy">     -8.21770655 </i>
   </energy>
  </scstep>
  <scstep>
   <time name="dav">    1.27    0.81</time>
   <time name="total">    1.36    0.87</time>
   <energy>
    <i name="e_fr_energy">     -8.21769409 </i>
    <i name="e_wo_entrp">     -8.21769409 </i>
    <i name="e_0_energy">     -8.21769409 </i>
   </energy>
  </scstep>
  <scstep>
   <time name="dav">    1.38    0.87</time>
   <time name="total">    1.52    0.95</time>
   <energy>
    <i name="e_fr_energy">     -8.21769754 </i>
    <i name="e_wo_entrp">     -8.21769754 </i>
    <i name="e_0_energy">     -8.21769754 </i>
   </energy>
  </scstep>
  <scstep>
   <time name="dav">    1.08    0.67</time>
   <time name="total">    1.18    0.74</time>
   <energy>
    <i name="e_fr_energy">     -8.21769899 </i>
    <i name="e_wo_entrp">     -8.21769899 </i>
    <i name="e_0_energy">     -8.21769899 </i>
   </energy>
  </scstep>
  <scstep>
   <time name="dav">    0.99    0.63</time>
   <time name="total">    1.05    0.67</time>
   <energy>
    <i name="alphaZ">     59.71178263 </i>
    <i name="ewald">   -588.39789044 </i>
    <i name="hartreedc">    -96.66364408 </i>
    <i name="XCdc">      4.35763767 </i>
    <i name="pawpsdc">    713.82634360 </i>
    <i name="pawaedc">   -722.91405885 </i>
    <i name="eentropy">      0.00000000 </i>
    <i name="bandstr">     27.57375434 </i>
    <i name="atom">    594.28837649 </i>
    <i name="e_fr_energy">     -8.21769864 </i>
    <i name="e_wo_entrp">     -8.21769864 </i>
    <i name="e_0_energy">     -8.21769864 </i>
   </energy>
  </scstep>
  <structure>
   <crystal>
    <varray name="basis" >
     <v>      -1.42500000       1.42500000       1.42500000 </v>
     <v>       1.42500000      -1.42500000       1.42500000 </v>
     <v>       1.42500000       1.42500000      -1.42500000 </v>
    </varray>
    <i name="volume">     11.57456250 </i>
    <varray name="rec_basis" >
     <v>       0.00000000       0.35087719       0.35087719 </v>
     <v>       0.35087719       0.00000000       0.35087719 </v>
     <v>       0.35087719       0.35087719       0.00000000 </v>
    </varray>
   </crystal>
   <varray name="positions" >
    <v>       0.00000000       0.00000000       0.00000000 </v>
   </varray>
  </structure>
  <varray name="forces" >
   <v>      -0.00000000      -0.00000000       0.00000000 </v>
  </varray>
  <varray name="stress" >
   <v>     -26.77648855       0.00000000       0.00000000 </v>
   <v>       0.00000000     -26.77648855       0.00000000 </v>
   <v>      -0.00000000       0.00000000     -26.77648855 </v>
  </varray>
  <energy>
   <i name="e_fr_energy">     -8.21769864 </i>
   <i name="e_wo_entrp">     -8.21769864 </i>
   <i name="e_0_energy">      0.00000000 </i>
  </energy>
  <time name="totalsc">   30.70   19.35</time>
  <eigenvalues>
   <array>
    <dimension dim="1">band</dimension>
    <dimension dim="2">kpoint</dimension>
    <dimension dim="3">spin</dimension>
    <field>eigene</field>
    <field>occ</field>
    <set>
     <set comment="spin 1">
      <set comment="kpoint 1">
       <r>   -1.0540    1.0000 </r>
       <r>    2.9823    1.0000 </r>
       <r>    2.9823    1.0000 </r>
       <r>    4.3720    1.0000 </r>
       <r>    4.5380    1.0008 </r>
       <r>    4.5380    1.0001 </r>
       <r>   25.0493    0.0000 </r>
       <r>   25.0493    0.0000 </r>
       <r>   28.2072    0.0000 </r>
       <r>   32.0589    0.0000 </r>
       <r>   37.1984    0.0000 </r>
       <r>   37.1984    0.0000 </r>
      </set>
      <set comment="kpoint 2">
       <r>    0.9898    1.0000 </r>
       <r>    2.4660    1.0000 </r>
       <r>    3.0516    1.0000 </r>
       <r>    4.5766    1.0000 </r>
       <r>    4.7271    1.0217 </r>
       <r>    6.1463    0.0717 </r>
       <r>   17.8382    0.0000 </r>
       <r>   22.3473    0.0000 </r>
       <r>   23.9685    0.0000 </r>
       <r>   32.4852    0.0000 </r>
       <r>   36.4819    0.0000 </r>
       <r>   39.1890    0.0000 </r>
      </set>
      <set comment="kpoint 3">
       <r>    1.1937    1.0000 </r>
       <r>    2.2529    1.0000 </r>
       <r>    4.3205    1.0000 </r>
       <r>    4.6879    1.0000 </r>
       <r>    4.7954    1.0630 </r>
       <r>    8.3382   -0.0076 </r>
       <r>   12.9330    0.0000 </r>
       <r>   21.3174    0.0000 </r>
       <r>   22.5505    0.0000 </r>
       <r>   32.1084    0.0000 </r>
       <r>   36.2566    0.0000 </r>
       <r>   40.4289    0.0000 </r>
      </set>
      <set comment="kpoint 4">
       <r>   -2.0913    1.0000 </r>
       <r>    3.3426    1.0000 </r>
       <r>    3.3426    1.0000 </r>
       <r>    3.4903    1.0000 </r>
       <r>    4.3593    1.0000 </r>
       <r>    4.7007    1.0074 </r>
       <r>   27.9695    0.0000 </r>
       <r>   29.6697    0.0000 </r>
       <r>   29.6697    0.0000 </r>
       <r>   32.1197    0.0000 </r>
       <r>   34.9263    0.0000 </r>
       <r>   34.9263    0.0000 </r>
      </set>
      <set comment="kpoint 5">
       <r>    1.9164    1.0000 </r>
       <r>    2.3782    1.0000 </r>
       <r>    2.9180    1.0000 </r>
       <r>    4.7191    1.0000 </r>
       <r>    4.8495    1.0128 </r>
       <r>    9.5966   -0.0078 </r>
       <r>   15.2490    0.0000 </r>
       <r>   16.3162    0.0000 </r>
       <r>   21.3287    0.0000 </r>
       <r>   35.7455    0.0000 </r>
       <r>   38.2960    0.0000 </r>
       <r>   43.4751    0.0000 </r>
      </set>
      <set comment="kpoint 6">
       <r>   -0.1924    1.0000 </r>
       <r>    2.9475    1.0000 </r>
       <r>    3.1952    1.0000 </r>
       <r>    4.1727    1.0000 </r>
       <r>    4.4917    1.0142 </r>
       <r>    4.8929    0.7923 </r>
       <r>   21.4854    0.0000 </r>
       <r>   26.1727    0.0000 </r>
       <r>   26.8486    0.0000 </r>
       <r>   32.0120    0.0000 </r>
       <r>   32.3759    0.0000 </r>
       <r>   34.7404    0.0000 </r>
      </set>
      <set comment="kpoint 7">
       <r>    0.9847    1.0000 </r>
       <r>    2.5307    1.0000 </r>
       <r>    3.7790    1.0000 </r>
       <r>    4.5249    1.0000 </r>
       <r>    5.7164    0.6678 </r>
       <r>    6.2706    0.0061 </r>
       <r>   14.4708    0.0000 </r>
       <r>   23.9649    0.0000 </r>
       <r>   24.3427    0.0000 </r>
       <r>   30.9351    0.0000 </r>
       <r>   33.1826    0.0000 </r>
       <r>   36.1711    0.0000 </r>
      </set>
      <set comment="kpoint 8">
       <r>    1.4273    1.0000 </r>
       <r>    2.4775    1.0000 </r>
       <r>    3.1378    1.0000 </r>
       <r>    4.2465    1.0000 </r>
       <r>    5.0672    1.0356 </r>
       <r>    6.6481   -0.0161 </r>
       <r>   18.2832    0.0000 </r>
       <r>   19.0070    0.0000 </r>
       <r>   28.2123    0.0000 </r>
       <r>   28.5573    0.0000 </r>
       <r>   32.8400    0.0000 </r>
       <r>   40.5338    0.0000 </r>
      </set>
      <set comment="kpoint 9">
       <r>    1.6896    1.0000 </r>
       <r>    2.6315    1.0000 </r>
       <r>    2.8494    1.0000 </r>
       <r>    4.5549    1.0000 </r>
       <r>    5.3675    1.0161 </r>
       <r>   10.0149   -0.0029 </r>
       <r>   13.1315    0.0000 </r>
       <r>   17.5178    0.0000 </r>
       <r>   26.9506    0.0000 </r>
       <r>   30.2350    0.0000 </r>
       <r>   32.6478    0.0000 </r>
       <r>   38.6612    0.0000 </r>
      </set>
      <set comment="kpoint 10">
       <r>    2.4560    1.0000 </r>
       <r>    2.4560    1.0000 </r>
       <r>    2.4560    1.0000 </r>
       <r>    4.8214    1.0000 </r>
       <r>    4.8214    1.0000 </r>
       <r>   14.1635    0.0000 </r>
       <r>   14.1635    0.0000 </r>
       <r>   14.1635    0.0000 </r>
       <r>   16.2684    0.0000 </r>
       <r>   44.3300    0.0000 </r>
       <r>   44.3300    0.0000 </r>
       <r>   44.3301    0.0000 </r>
      </set>
      <set comment="kpoint 11">
       <r>    1.1051    1.0000 </r>
       <r>    2.7577    1.0000 </r>
       <r>    3.7766    1.0000 </r>
       <r>    3.7766    1.0000 </r>
       <r>    4.4879    1.0932 </r>
       <r>    5.8699    0.1464 </r>
       <r>   22.5166    0.0000 </r>
       <r>   22.5166    0.0000 </r>
       <r>   23.1019    0.0000 </r>
       <r>   25.3664    0.0000 </r>
       <r>   39.2432    0.0000 </r>
       <r>   39.2432    0.0000 </r>
      </set>
      <set comment="kpoint 12">
       <r>    1.6151    1.0000 </r>
       <r>    2.0696    1.0000 </r>
       <r>    3.7540    1.0000 </r>
       <r>    4.2849    1.0000 </r>
       <r>    5.5816    0.7711 </r>
       <r>    9.0062   -0.0147 </r>
       <r>   15.6079    0.0000 </r>
       <r>   19.6996    0.0000 </r>
       <r>   22.8138    0.0000 </r>
       <r>   27.2159    0.0000 </r>
       <r>   34.4288    0.0000 </r>
       <r>   37.6101    0.0000 </r>
      </set>
      <set comment="kpoint 13">
       <r>    1.6106    1.0000 </r>
       <r>    1.6106    1.0000 </r>
       <r>    3.8163    1.0000 </r>
       <r>    5.3367    1.0000 </r>
       <r>    5.3367    1.0868 </r>
       <r>   13.5562    0.0000 </r>
       <r>   13.5563    0.0000 </r>
       <r>   15.1571    0.0000 </r>
       <r>   25.3975    0.0000 </r>
       <r>   25.3975    0.0000 </r>
       <r>   30.2147    0.0000 </r>
       <r>   38.1038    0.0000 </r>
      </set>
      <set comment="kpoint 14">
       <r>    1.1794    1.0000 </r>
       <r>    1.1877    1.0000 </r>
       <r>    5.2631    1.0000 </r>
       <r>    5.2631    1.0000 </r>
       <r>    5.5217    1.0005 </r>
       <r>   12.5190    0.0000 </r>
       <r>   16.4853    0.0000 </r>
       <r>   16.4854    0.0000 </r>
       <r>   21.3697    0.0000 </r>
       <r>   22.8754    0.0000 </r>
       <r>   28.1306    0.0000 </r>
       <r>   43.3768    0.0000 </r>
      </set>
     </set>
     <set comment="spin 2">
      <set comment="kpoint 1">
       <r>   -0.9382    1.0000 </r>
       <r>    4.9500    1.0000 </r>
       <r>    4.9500    1.0019 </r>
       <r>    6.5132    0.0000 </r>
       <r>    7.2134    0.0000 </r>
       <r>    7.2134    0.0000 </r>
       <r>   25.3167    0.0000 </r>
       <r>   25.3167    0.0000 </r>
       <r>   29.0252    0.0000 </r>
       <r>   31.6995    0.0000 </r>
       <r>   37.4402    0.0000 </r>
       <r>   37.4402    0.0000 </r>
      </set>
      <set comment="kpoint 2">
       <r>    1.5571    1.0000 </r>
       <r>    4.3042    1.0000 </r>
       <r>    4.5708    1.0021 </r>
       <r>    7.1872    0.0000 </r>
       <r>    7.4758    0.0000 </r>
       <r>    8.2138    0.0000 </r>
       <r>   18.6190    0.0000 </r>
       <r>   22.6874    0.0000 </r>
       <r>   24.6269    0.0000 </r>
       <r>   32.4557    0.0000 </r>
       <r>   36.9651    0.0000 </r>
       <r>   39.3391    0.0000 </r>
      </set>
      <set comment="kpoint 3">
       <r>    2.5256    1.0000 </r>
       <r>    4.0369    1.0000 </r>
       <r>    5.3671    0.9983 </r>
       <r>    7.2976    0.0000 </r>
       <r>    7.5828    0.0000 </r>
       <r>    9.7109    0.0000 </r>
       <r>   14.2665    0.0000 </r>
       <r>   21.6369    0.0000 </r>
       <r>   23.1395    0.0000 </r>
       <r>   32.2330    0.0000 </r>
       <r>   36.7775    0.0000 </r>
       <r>   40.3904    0.0000 </r>
      </set>
      <set comment="kpoint 4">
       <r>   -1.9995    1.0000 </r>
       <r>    5.3866    1.0000 </r>
       <r>    5.3866    0.9965 </r>
       <r>    5.5745    0.0000 </r>
       <r>    6.9969    0.0000 </r>
       <r>    7.4377    0.0000 </r>
       <r>   27.8593    0.0000 </r>
       <r>   29.6571    0.0000 </r>
       <r>   29.6571    0.0000 </r>
       <r>   32.4515    0.0000 </r>
       <r>   35.5559    0.0000 </r>
       <r>   35.5559    0.0000 </r>
      </set>
      <set comment="kpoint 5">
       <r>    3.3084    1.0000 </r>
       <r>    3.9666    1.0000 </r>
       <r>    4.2678    1.0007 </r>
       <r>    7.3806    0.0000 </r>
       <r>    7.5784    0.0000 </r>
       <r>   11.0209    0.0000 </r>
       <r>   16.1236    0.0000 </r>
       <r>   17.0866    0.0000 </r>
       <r>   21.8742    0.0000 </r>
       <r>   35.6668    0.0000 </r>
       <r>   38.3507    0.0000 </r>
       <r>   43.6257    0.0000 </r>
      </set>
      <set comment="kpoint 6">
       <r>    0.0105    1.0000 </r>
       <r>    4.9011    1.0000 </r>
       <r>    5.0936    1.0084 </r>
       <r>    6.6314    0.0000 </r>
       <r>    6.6853    0.0000 </r>
       <r>    7.6172    0.0000 </r>
       <r>   22.0688    0.0000 </r>
       <r>   26.2739    0.0000 </r>
       <r>   27.3836    0.0000 </r>
       <r>   32.3788    0.0000 </r>
       <r>   32.8091    0.0000 </r>
       <r>   35.0401    0.0000 </r>
      </set>
      <set comment="kpoint 7">
       <r>    2.1281    1.0000 </r>
       <r>    4.3989    1.0000 </r>
       <r>    5.1948    1.0011 </r>
       <r>    6.9844    0.0000 </r>
       <r>    8.0870    0.0000 </r>
       <r>    8.1071    0.0000 </r>
       <r>   15.5969    0.0000 </r>
       <r>   24.0330    0.0000 </r>
       <r>   24.9158    0.0000 </r>
       <r>   31.3990    0.0000 </r>
       <r>   33.6645    0.0000 </r>
       <r>   36.3017    0.0000 </r>
      </set>
      <set comment="kpoint 8">
       <r>    2.1824    1.0000 </r>
       <r>    4.3326    1.0000 </r>
       <r>    4.9136    1.0368 </r>
       <r>    6.5937    0.0000 </r>
       <r>    7.5552    0.0000 </r>
       <r>    8.6362    0.0000 </r>
       <r>   19.0585    0.0000 </r>
       <r>   19.6641    0.0000 </r>
       <r>   28.5816    0.0000 </r>
       <r>   28.7665    0.0000 </r>
       <r>   33.2063    0.0000 </r>
       <r>   40.8233    0.0000 </r>
      </set>
      <set comment="kpoint 9">
       <r>    3.1859    1.0000 </r>
       <r>    4.3971    1.0000 </r>
       <r>    4.4446    1.0656 </r>
       <r>    6.9459    0.0000 </r>
       <r>    7.7649    0.0000 </r>
       <r>   11.1979    0.0000 </r>
       <r>   14.3360    0.0000 </r>
       <r>   18.2045    0.0000 </r>
       <r>   27.2384    0.0000 </r>
       <r>   30.6220    0.0000 </r>
       <r>   32.7281    0.0000 </r>
       <r>   39.4084    0.0000 </r>
      </set>
      <set comment="kpoint 10">
       <r>    3.9305    1.0000 </r>
       <r>    3.9305    1.0000 </r>
       <r>    3.9305    1.0000 </r>
       <r>    7.6176    0.0000 </r>
       <r>    7.6176    0.0000 </r>
       <r>   15.0603    0.0000 </r>
       <r>   15.0603    0.0000 </r>
       <r>   15.0603    0.0000 </r>
       <r>   16.9963    0.0000 </r>
       <r>   43.9969    0.0000 </r>
       <r>   43.9969    0.0000 </r>
       <r>   43.9969    0.0000 </r>
      </set>
      <set comment="kpoint 11">
       <r>    1.6098    1.0000 </r>
       <r>    4.9407    1.0000 </r>
       <r>    5.7692    0.5638 </r>
       <r>    5.7692    0.0000 </r>
       <r>    6.6970    0.0000 </r>
       <r>    8.2022    0.0000 </r>
       <r>   23.1328    0.0000 </r>
       <r>   23.1328    0.0000 </r>
       <r>   23.5660    0.0000 </r>
       <r>   25.7340    0.0000 </r>
       <r>   39.5053    0.0000 </r>
       <r>   39.5053    0.0000 </r>
      </set>
      <set comment="kpoint 12">
       <r>    3.0638    1.0000 </r>
       <r>    3.8604    1.0000 </r>
       <r>    5.7469    0.4241 </r>
       <r>    6.4036    0.0000 </r>
       <r>    7.9309    0.0000 </r>
       <r>   10.2838    0.0000 </r>
       <r>   16.4743    0.0000 </r>
       <r>   20.2449    0.0000 </r>
       <r>   23.3453    0.0000 </r>
       <r>   27.5618    0.0000 </r>
       <r>   35.1441    0.0000 </r>
       <r>   38.0155    0.0000 </r>
      </set>
      <set comment="kpoint 13">
       <r>    3.3623    1.0000 </r>
       <r>    3.3623    1.0000 </r>
       <r>    5.7377    0.3013 </r>
       <r>    7.6147    0.0000 </r>
       <r>    7.6147    0.0000 </r>
       <r>   14.3861    0.0000 </r>
       <r>   14.3861    0.0000 </r>
       <r>   15.8717    0.0000 </r>
       <r>   25.7965    0.0000 </r>
       <r>   25.7965    0.0000 </r>
       <r>   31.1212    0.0000 </r>
       <r>   38.5336    0.0000 </r>
      </set>
      <set comment="kpoint 14">
       <r>    2.8898    1.0000 </r>
       <r>    3.0109    1.0000 </r>
       <r>    7.4974   -0.0636 </r>
       <r>    7.4974    0.0000 </r>
       <r>    7.8720    0.0000 </r>
       <r>   13.1538    0.0000 </r>
       <r>   16.8506    0.0000 </r>
       <r>   16.8506    0.0000 </r>
       <r>   22.2260    0.0000 </r>
       <r>   23.5431    0.0000 </r>
       <r>   29.0719    0.0000 </r>
       <r>   43.6414    0.0000 </r>
      </set>
     </set>
    </set>
   </array>
  </eigenvalues>
  <separator name="orbital magnetization" >
   <v name="MAGDIPOLOUT">      0.00000000      0.00000000      0.00000000</v>
  </separator>
  <dos>
   <i name="efermi">      5.56439346 </i>
   <total>
    <array>
     <dimension dim="1">gridpoints</dimension>
     <dimension dim="2">spin</dimension>
     <field>energy</field>
     <field>total</field>
     <field>integrated</field>
     <set>
      <set comment="spin 1">
       <r>    -4.4123     0.0000     0.0000 </r>
       <r>    -4.2421     0.0000     0.0000 </r>
       <r>    -4.0719     0.0000     0.0000 </r>
       <r>    -3.9017     0.0000     0.0000 </r>
       <r>    -3.7315     0.0000     0.0000 </r>
       <r>    -3.5613     0.0000     0.0000 </r>
       <r>    -3.3911     0.0000     0.0000 </r>
       <r>    -3.2208     0.0000     0.0000 </r>
       <r>    -3.0506     0.0000     0.0000 </r>
       <r>    -2.8804     0.0000     0.0000 </r>
       <r>    -2.7102     0.0000     0.0000 </r>
       <r>    -2.5400     0.0000     0.0000 </r>
       <r>    -2.3698     0.0000     0.0000 </r>
       <r>    -2.1996     0.0000     0.0000 </r>
       <r>    -2.0294     0.0161     0.0025 </r>
       <r>    -1.8592     0.0220     0.0057 </r>
       <r>    -1.6889     0.0276     0.0099 </r>
       <r>    -1.5187     0.0329     0.0151 </r>
       <r>    -1.3485     0.0378     0.0211 </r>
       <r>    -1.1783     0.0424     0.0279 </r>
       <r>    -1.0081     0.0481     0.0356 </r>
       <r>    -0.8379     0.0575     0.0445 </r>
       <r>    -0.6677     0.0667     0.0551 </r>
       <r>    -0.4975     0.0756     0.0672 </r>
       <r>    -0.3273     0.0843     0.0808 </r>
       <r>    -0.1570     0.0942     0.0959 </r>
       <r>     0.0132     0.1101     0.1133 </r>
       <r>     0.1834     0.1285     0.1336 </r>
       <r>     0.3536     0.1493     0.1572 </r>
       <r>     0.5238     0.1726     0.1845 </r>
       <r>     0.6940     0.1984     0.2161 </r>
       <r>     0.8642     0.2266     0.2522 </r>
       <r>     1.0344     0.5606     0.3109 </r>
       <r>     1.2047     0.7469     0.4230 </r>
       <r>     1.3749     0.9398     0.5662 </r>
       <r>     1.5451     1.2163     0.7469 </r>
       <r>     1.7153     0.5405     0.9537 </r>
       <r>     1.8855     0.3690     1.0296 </r>
       <r>     2.0557     0.2720     1.0859 </r>
       <r>     2.2259     0.3788     1.1398 </r>
       <r>     2.3961     2.3934     1.3148 </r>
       <r>     2.5663     1.5106     1.7029 </r>
       <r>     2.7366     0.5802     1.8418 </r>
       <r>     2.9068     1.0914     1.9541 </r>
       <r>     3.0770     1.6499     2.1726 </r>
       <r>     3.2472     1.2915     2.4470 </r>
       <r>     3.4174     0.8260     2.6227 </r>
       <r>     3.5876     0.7350     2.7571 </r>
       <r>     3.7578     1.1639     2.8747 </r>
       <r>     3.9280     0.3736     2.9556 </r>
       <r>     4.0983     0.4948     3.0274 </r>
       <r>     4.2685     1.2908     3.1618 </r>
       <r>     4.4387     2.0204     3.4218 </r>
       <r>     4.6089     2.4799     3.8492 </r>
       <r>     4.7791     1.4726     4.1935 </r>
       <r>     4.9493     1.0692     4.4592 </r>
       <r>     5.1195     0.9557     4.6278 </r>
       <r>     5.2897     1.0780     4.7976 </r>
       <r>     5.4599     1.2434     4.9890 </r>
       <r>     5.6302     0.3894     5.1587 </r>
       <r>     5.8004     0.1623     5.1973 </r>
       <r>     5.9706     0.1734     5.2259 </r>
       <r>     6.1408     0.1839     5.2563 </r>
       <r>     6.3110     0.1916     5.2927 </r>
       <r>     6.4812     0.1763     5.3240 </r>
       <r>     6.6514     0.1569     5.3524 </r>
       <r>     6.8216     0.1569     5.3791 </r>
       <r>     6.9919     0.1568     5.4058 </r>
       <r>     7.1621     0.1566     5.4325 </r>
       <r>     7.3323     0.1564     5.4591 </r>
       <r>     7.5025     0.1560     5.4857 </r>
       <r>     7.6727     0.1556     5.5122 </r>
       <r>     7.8429     0.1551     5.5387 </r>
       <r>     8.0131     0.1546     5.5650 </r>
       <r>     8.1833     0.1539     5.5913 </r>
       <r>     8.3535     0.1532     5.6174 </r>
       <r>     8.5238     0.1528     5.6435 </r>
       <r>     8.6940     0.1520     5.6694 </r>
       <r>     8.8642     0.1509     5.6952 </r>
       <r>     9.0344     0.1591     5.7211 </r>
       <r>     9.2046     0.1576     5.7480 </r>
       <r>     9.3748     0.1558     5.7747 </r>
       <r>     9.5450     0.1538     5.8010 </r>
       <r>     9.7152     0.1640     5.8359 </r>
       <r>     9.8855     0.1280     5.8608 </r>
       <r>    10.0557     0.0644     5.8780 </r>
       <r>    10.2259     0.0608     5.8887 </r>
       <r>    10.3961     0.0574     5.8988 </r>
       <r>    10.5663     0.0540     5.9082 </r>
       <r>    10.7365     0.0507     5.9171 </r>
       <r>    10.9067     0.0476     5.9255 </r>
       <r>    11.0769     0.0446     5.9334 </r>
       <r>    11.2471     0.0416     5.9407 </r>
       <r>    11.4174     0.0388     5.9475 </r>
       <r>    11.5876     0.0361     5.9539 </r>
       <r>    11.7578     0.0335     5.9598 </r>
       <r>    11.9280     0.0310     5.9653 </r>
       <r>    12.0982     0.0286     5.9704 </r>
       <r>    12.2684     0.0263     5.9751 </r>
       <r>    12.4386     0.0242     5.9793 </r>
       <r>    12.6088     0.0277     5.9854 </r>
       <r>    12.7791     0.0240     5.9898 </r>
       <r>    12.9493     0.0210     5.9935 </r>
       <r>    13.1195     0.0395     5.9984 </r>
       <r>    13.2897     0.0773     6.0090 </r>
       <r>    13.4599     0.1015     6.0243 </r>
       <r>    13.6301     0.1228     6.0433 </r>
       <r>    13.8003     0.1458     6.0662 </r>
       <r>    13.9705     0.1685     6.0929 </r>
       <r>    14.1407     0.1908     6.1235 </r>
       <r>    14.3110     0.2128     6.1579 </r>
       <r>    14.4812     0.2178     6.1958 </r>
       <r>    14.6514     0.2233     6.2333 </r>
       <r>    14.8216     0.2279     6.2718 </r>
       <r>    14.9918     0.2315     6.3109 </r>
       <r>    15.1620     0.2343     6.3505 </r>
       <r>    15.3322     0.1945     6.3934 </r>
       <r>    15.5024     0.1957     6.4266 </r>
       <r>    15.6726     0.2104     6.4610 </r>
       <r>    15.8429     0.2025     6.4961 </r>
       <r>    16.0131     0.1966     6.5300 </r>
       <r>    16.1833     0.1929     6.5632 </r>
       <r>    16.3535     0.1961     6.6022 </r>
       <r>    16.5237     0.1782     6.6379 </r>
       <r>    16.6939     0.1806     6.6684 </r>
       <r>    16.8641     0.1829     6.6994 </r>
       <r>    17.0343     0.1854     6.7307 </r>
       <r>    17.2046     0.1879     6.7625 </r>
       <r>    17.3748     0.1904     6.7947 </r>
       <r>    17.5450     0.1892     6.8272 </r>
       <r>    17.7152     0.1895     6.8594 </r>
       <r>    17.8854     0.1881     6.8916 </r>
       <r>    18.0556     0.1872     6.9236 </r>
       <r>    18.2258     0.1871     6.9554 </r>
       <r>    18.3960     0.1880     6.9873 </r>
       <r>    18.5662     0.1888     7.0194 </r>
       <r>    18.7365     0.1892     7.0516 </r>
       <r>    18.9067     0.1892     7.0838 </r>
       <r>    19.0769     0.1915     7.1161 </r>
       <r>    19.2471     0.1955     7.1491 </r>
       <r>    19.4173     0.1964     7.1825 </r>
       <r>    19.5875     0.1942     7.2157 </r>
       <r>    19.7577     0.1683     7.2471 </r>
       <r>    19.9279     0.1667     7.2756 </r>
       <r>    20.0982     0.1652     7.3039 </r>
       <r>    20.2684     0.1637     7.3319 </r>
       <r>    20.4386     0.1624     7.3596 </r>
       <r>    20.6088     0.1612     7.3872 </r>
       <r>    20.7790     0.1600     7.4145 </r>
       <r>    20.9492     0.1590     7.4417 </r>
       <r>    21.1194     0.1581     7.4686 </r>
       <r>    21.2896     0.1572     7.4955 </r>
       <r>    21.4598     0.1859     7.5332 </r>
       <r>    21.6301     0.1943     7.5661 </r>
       <r>    21.8003     0.1941     7.5992 </r>
       <r>    21.9705     0.1952     7.6323 </r>
       <r>    22.1407     0.1976     7.6657 </r>
       <r>    22.3109     0.2012     7.6996 </r>
       <r>    22.4811     0.2075     7.7344 </r>
       <r>    22.6513     0.2162     7.7704 </r>
       <r>    22.8215     0.2531     7.8084 </r>
       <r>    22.9918     0.2486     7.8525 </r>
       <r>    23.1620     0.2546     7.8952 </r>
       <r>    23.3322     0.2642     7.9393 </r>
       <r>    23.5024     0.2736     7.9851 </r>
       <r>    23.6726     0.2829     8.0325 </r>
       <r>    23.8428     0.2921     8.0814 </r>
       <r>    24.0130     0.2897     8.1313 </r>
       <r>    24.1832     0.3091     8.1822 </r>
       <r>    24.3534     0.2944     8.2361 </r>
       <r>    24.5237     0.2913     8.2859 </r>
       <r>    24.6939     0.2877     8.3352 </r>
       <r>    24.8641     0.2835     8.3838 </r>
       <r>    25.0343     0.2788     8.4317 </r>
       <r>    25.2045     0.2772     8.4790 </r>
       <r>    25.3747     0.2742     8.5260 </r>
       <r>    25.5449     0.2714     8.5724 </r>
       <r>    25.7151     0.2674     8.6183 </r>
       <r>    25.8854     0.2620     8.6633 </r>
       <r>    26.0556     0.2552     8.7074 </r>
       <r>    26.2258     0.2390     8.7497 </r>
       <r>    26.3960     0.2340     8.7899 </r>
       <r>    26.5662     0.2287     8.8293 </r>
       <r>    26.7364     0.2232     8.8678 </r>
       <r>    26.9066     0.2322     8.9061 </r>
       <r>    27.0768     0.2194     8.9445 </r>
       <r>    27.2470     0.2045     8.9808 </r>
       <r>    27.4173     0.1914     9.0145 </r>
       <r>    27.5875     0.1778     9.0459 </r>
       <r>    27.7577     0.1639     9.0750 </r>
       <r>    27.9279     0.1496     9.1017 </r>
       <r>    28.0981     0.1307     9.1269 </r>
       <r>    28.2683     0.1274     9.1505 </r>
       <r>    28.4385     0.1265     9.1721 </r>
       <r>    28.6087     0.1258     9.1935 </r>
       <r>    28.7789     0.1266     9.2150 </r>
       <r>    28.9492     0.1274     9.2366 </r>
       <r>    29.1194     0.1281     9.2584 </r>
       <r>    29.2896     0.1288     9.2802 </r>
       <r>    29.4598     0.1294     9.3022 </r>
       <r>    29.6300     0.1299     9.3242 </r>
       <r>    29.8002     0.1190     9.3478 </r>
       <r>    29.9704     0.1232     9.3684 </r>
       <r>    30.1406     0.1274     9.3897 </r>
       <r>    30.3109     0.1320     9.4117 </r>
       <r>    30.4811     0.1416     9.4350 </r>
       <r>    30.6513     0.1536     9.4601 </r>
       <r>    30.8215     0.1677     9.4874 </r>
       <r>    30.9917     0.1897     9.5177 </r>
       <r>    31.1619     0.1972     9.5507 </r>
       <r>    31.3321     0.2037     9.5848 </r>
       <r>    31.5023     0.2094     9.6200 </r>
       <r>    31.6725     0.2143     9.6560 </r>
       <r>    31.8428     0.2182     9.6929 </r>
       <r>    32.0130     0.6297     9.7307 </r>
       <r>    32.1832     0.3127     9.8476 </r>
       <r>    32.3534     0.2084     9.8918 </r>
       <r>    32.5236     0.1766     9.9256 </r>
       <r>    32.6938     0.2322     9.9589 </r>
       <r>    32.8640     0.3143    10.0063 </r>
       <r>    33.0342     0.3375    10.0618 </r>
       <r>    33.2045     0.3432    10.1206 </r>
       <r>    33.3747     0.3318    10.1781 </r>
       <r>    33.5449     0.3191    10.2335 </r>
       <r>    33.7151     0.3053    10.2866 </r>
       <r>    33.8853     0.2901    10.3373 </r>
       <r>    34.0555     0.2738    10.3853 </r>
       <r>    34.2257     0.2562    10.4305 </r>
       <r>    34.3959     0.2373    10.4725 </r>
       <r>    34.5661     0.2131    10.5099 </r>
       <r>    34.7364     0.2055    10.5455 </r>
       <r>    34.9066     0.2970    10.5964 </r>
       <r>    35.0768     0.2488    10.6431 </r>
       <r>    35.2470     0.2436    10.6850 </r>
       <r>    35.4172     0.2382    10.7261 </r>
       <r>    35.5874     0.2329    10.7661 </r>
       <r>    35.7576     0.2178    10.8114 </r>
       <r>    35.9278     0.2138    10.8481 </r>
       <r>    36.0981     0.2098    10.8842 </r>
       <r>    36.2683     0.2177    10.9207 </r>
       <r>    36.4385     0.2133    10.9573 </r>
       <r>    36.6087     0.2114    10.9936 </r>
       <r>    36.7789     0.2070    11.0292 </r>
       <r>    36.9491     0.2036    11.0641 </r>
       <r>    37.1193     0.2012    11.0985 </r>
       <r>    37.2895     0.2025    11.1328 </r>
       <r>    37.4597     0.2069    11.1676 </r>
       <r>    37.6300     0.2555    11.2041 </r>
       <r>    37.8002     0.2835    11.2502 </r>
       <r>    37.9704     0.2944    11.2997 </r>
       <r>    38.1406     0.2897    11.3495 </r>
       <r>    38.3108     0.2639    11.4040 </r>
       <r>    38.4810     0.2511    11.4479 </r>
       <r>    38.6512     0.2322    11.4891 </r>
       <r>    38.8214     0.2196    11.5270 </r>
       <r>    38.9917     0.2139    11.5639 </r>
       <r>    39.1619     0.2072    11.5997 </r>
       <r>    39.3321     0.1939    11.6340 </r>
       <r>    39.5023     0.1793    11.6657 </r>
       <r>    39.6725     0.1648    11.6950 </r>
       <r>    39.8427     0.1502    11.7218 </r>
       <r>    40.0129     0.1357    11.7461 </r>
       <r>    40.1831     0.1212    11.7680 </r>
       <r>    40.3533     0.1067    11.7874 </r>
       <r>    40.5236     0.0937    11.8044 </r>
       <r>    40.6938     0.0884    11.8199 </r>
       <r>    40.8640     0.0836    11.8345 </r>
       <r>    41.0342     0.0790    11.8483 </r>
       <r>    41.2044     0.0746    11.8614 </r>
       <r>    41.3746     0.0704    11.8737 </r>
       <r>    41.5448     0.0663    11.8854 </r>
       <r>    41.7150     0.0623    11.8963 </r>
       <r>    41.8853     0.0586    11.9066 </r>
       <r>    42.0555     0.0550    11.9163 </r>
       <r>    42.2257     0.0515    11.9253 </r>
       <r>    42.3959     0.0483    11.9338 </r>
       <r>    42.5661     0.0452    11.9418 </r>
       <r>    42.7363     0.0423    11.9492 </r>
       <r>    42.9065     0.0395    11.9562 </r>
       <r>    43.0767     0.0369    11.9627 </r>
       <r>    43.2469     0.0345    11.9687 </r>
       <r>    43.4172     0.0289    11.9758 </r>
       <r>    43.5874     0.0433    11.9893 </r>
       <r>    43.7576     0.0257    11.9951 </r>
       <r>    43.9278     0.0127    11.9983 </r>
       <r>    44.0980     0.0042    11.9997 </r>
       <r>    44.2682     0.0003    12.0000 </r>
       <r>    44.4384     0.0000    12.0000 </r>
       <r>    44.6086     0.0000    12.0000 </r>
       <r>    44.7788     0.0000    12.0000 </r>
       <r>    44.9491     0.0000    12.0000 </r>
       <r>    45.1193     0.0000    12.0000 </r>
       <r>    45.2895     0.0000    12.0000 </r>
       <r>    45.4597     0.0000    12.0000 </r>
       <r>    45.6299     0.0000    12.0000 </r>
       <r>    45.8001     0.0000    12.0000 </r>
       <r>    45.9703     0.0000    12.0000 </r>
       <r>    46.1405     0.0000    12.0000 </r>
       <r>    46.3108     0.0000    12.0000 </r>
       <r>    46.4810     0.0000    12.0000 </r>
       <r>    46.6512     0.0000    12.0000 </r>
      </set>
      <set comment="spin 2">
       <r>    -4.4123     0.0000     0.0000 </r>
       <r>    -4.2421     0.0000     0.0000 </r>
       <r>    -4.0719     0.0000     0.0000 </r>
       <r>    -3.9017     0.0000     0.0000 </r>
       <r>    -3.7315     0.0000     0.0000 </r>
       <r>    -3.5613     0.0000     0.0000 </r>
       <r>    -3.3911     0.0000     0.0000 </r>
       <r>    -3.2208     0.0000     0.0000 </r>
       <r>    -3.0506     0.0000     0.0000 </r>
       <r>    -2.8804     0.0000     0.0000 </r>
       <r>    -2.7102     0.0000     0.0000 </r>
       <r>    -2.5400     0.0000     0.0000 </r>
       <r>    -2.3698     0.0000     0.0000 </r>
       <r>    -2.1996     0.0000     0.0000 </r>
       <r>    -2.0294     0.0000     0.0000 </r>
       <r>    -1.8592     0.0180     0.0037 </r>
       <r>    -1.6889     0.0233     0.0073 </r>
       <r>    -1.5187     0.0281     0.0116 </r>
       <r>    -1.3485     0.0326     0.0168 </r>
       <r>    -1.1783     0.0366     0.0227 </r>
       <r>    -1.0081     0.0402     0.0293 </r>
       <r>    -0.8379     0.0460     0.0365 </r>
       <r>    -0.6677     0.0530     0.0450 </r>
       <r>    -0.4975     0.0594     0.0545 </r>
       <r>    -0.3273     0.0651     0.0651 </r>
       <r>    -0.1570     0.0701     0.0767 </r>
       <r>     0.0132     0.0716     0.0890 </r>
       <r>     0.1834     0.0780     0.1017 </r>
       <r>     0.3536     0.0850     0.1156 </r>
       <r>     0.5238     0.0926     0.1307 </r>
       <r>     0.6940     0.1007     0.1471 </r>
       <r>     0.8642     0.1094     0.1650 </r>
       <r>     1.0344     0.1186     0.1844 </r>
       <r>     1.2047     0.1284     0.2054 </r>
       <r>     1.3749     0.1388     0.2281 </r>
       <r>     1.5451     0.1497     0.2527 </r>
       <r>     1.7153     0.1864     0.2810 </r>
       <r>     1.8855     0.2344     0.3166 </r>
       <r>     2.0557     0.2909     0.3612 </r>
       <r>     2.2259     0.4153     0.4229 </r>
       <r>     2.3961     0.4139     0.4934 </r>
       <r>     2.5663     0.4193     0.5640 </r>
       <r>     2.7366     0.4319     0.6366 </r>
       <r>     2.9068     0.5225     0.7135 </r>
       <r>     3.0770     0.8191     0.8274 </r>
       <r>     3.2472     0.6100     0.9588 </r>
       <r>     3.4174     0.1761     1.0188 </r>
       <r>     3.5876     0.1711     1.0480 </r>
       <r>     3.7578     0.1847     1.0781 </r>
       <r>     3.9280     0.2470     1.1131 </r>
       <r>     4.0983     1.0826     1.2696 </r>
       <r>     4.2685     1.7084     1.5079 </r>
       <r>     4.4387     1.0383     1.8105 </r>
       <r>     4.6089     1.0339     1.9821 </r>
       <r>     4.7791     1.1495     2.1688 </r>
       <r>     4.9493     1.2359     2.3805 </r>
       <r>     5.1195     1.2096     2.6092 </r>
       <r>     5.2897     0.6881     2.7722 </r>
       <r>     5.4599     0.3034     2.8524 </r>
       <r>     5.6302     0.2403     2.8991 </r>
       <r>     5.8004     0.1166     2.9423 </r>
       <r>     5.9706     0.1474     2.9644 </r>
       <r>     6.1408     0.2050     2.9940 </r>
       <r>     6.3110     0.2895     3.0357 </r>
       <r>     6.4812     0.5495     3.1030 </r>
       <r>     6.6514     0.8532     3.2415 </r>
       <r>     6.8216     1.2965     3.4344 </r>
       <r>     6.9919     1.6761     3.6819 </r>
       <r>     7.1621     1.3540     3.9444 </r>
       <r>     7.3323     1.1827     4.1552 </r>
       <r>     7.5025     1.3205     4.3493 </r>
       <r>     7.6727     1.7406     4.6934 </r>
       <r>     7.8429     1.5891     4.9810 </r>
       <r>     8.0131     0.5691     5.1724 </r>
       <r>     8.1833     0.3638     5.2451 </r>
       <r>     8.3535     0.2803     5.2979 </r>
       <r>     8.5238     0.2359     5.3417 </r>
       <r>     8.6940     0.2100     5.3789 </r>
       <r>     8.8642     0.2069     5.4144 </r>
       <r>     9.0344     0.2040     5.4494 </r>
       <r>     9.2046     0.2013     5.4839 </r>
       <r>     9.3748     0.1988     5.5179 </r>
       <r>     9.5450     0.1965     5.5516 </r>
       <r>     9.7152     0.1945     5.5848 </r>
       <r>     9.8855     0.1932     5.6178 </r>
       <r>    10.0557     0.1910     5.6506 </r>
       <r>    10.2259     0.1879     5.6828 </r>
       <r>    10.3961     0.1922     5.7154 </r>
       <r>    10.5663     0.1867     5.7477 </r>
       <r>    10.7365     0.1804     5.7789 </r>
       <r>    10.9067     0.1733     5.8091 </r>
       <r>    11.0769     0.2330     5.8486 </r>
       <r>    11.2471     0.0760     5.8754 </r>
       <r>    11.4174     0.0712     5.8879 </r>
       <r>    11.5876     0.0667     5.8996 </r>
       <r>    11.7578     0.0622     5.9106 </r>
       <r>    11.9280     0.0580     5.9208 </r>
       <r>    12.0982     0.0539     5.9303 </r>
       <r>    12.2684     0.0499     5.9392 </r>
       <r>    12.4386     0.0462     5.9474 </r>
       <r>    12.6088     0.0425     5.9549 </r>
       <r>    12.7791     0.0391     5.9618 </r>
       <r>    12.9493     0.0358     5.9682 </r>
       <r>    13.1195     0.0326     5.9740 </r>
       <r>    13.2897     0.0326     5.9814 </r>
       <r>    13.4599     0.0278     5.9865 </r>
       <r>    13.6301     0.0230     5.9908 </r>
       <r>    13.8003     0.0181     5.9943 </r>
       <r>    13.9705     0.0131     5.9970 </r>
       <r>    14.1407     0.0081     5.9988 </r>
       <r>    14.3110     0.0166     6.0000 </r>
       <r>    14.4812     0.0909     6.0113 </r>
       <r>    14.6514     0.1210     6.0294 </r>
       <r>    14.8216     0.1508     6.0525 </r>
       <r>    14.9918     0.1802     6.0807 </r>
       <r>    15.1620     0.2094     6.1138 </r>
       <r>    15.3322     0.2381     6.1519 </r>
       <r>    15.5024     0.2664     6.1949 </r>
       <r>    15.6726     0.2652     6.2408 </r>
       <r>    15.8429     0.2669     6.2861 </r>
       <r>    16.0131     0.2718     6.3319 </r>
       <r>    16.1833     0.2272     6.3818 </r>
       <r>    16.3535     0.2286     6.4206 </r>
       <r>    16.5237     0.2628     6.4615 </r>
       <r>    16.6939     0.2327     6.5035 </r>
       <r>    16.8641     0.1839     6.5443 </r>
       <r>    17.0343     0.1859     6.5757 </r>
       <r>    17.2046     0.1937     6.6144 </r>
       <r>    17.3748     0.1958     6.6476 </r>
       <r>    17.5450     0.1980     6.6811 </r>
       <r>    17.7152     0.2002     6.7150 </r>
       <r>    17.8854     0.2025     6.7492 </r>
       <r>    18.0556     0.2049     6.7839 </r>
       <r>    18.2258     0.2034     6.8189 </r>
       <r>    18.3960     0.2035     6.8536 </r>
       <r>    18.5662     0.2033     6.8882 </r>
       <r>    18.7365     0.2010     6.9226 </r>
       <r>    18.9067     0.2001     6.9567 </r>
       <r>    19.0769     0.2001     6.9907 </r>
       <r>    19.2471     0.2010     7.0249 </r>
       <r>    19.4173     0.2014     7.0591 </r>
       <r>    19.5875     0.2014     7.0934 </r>
       <r>    19.7577     0.2059     7.1279 </r>
       <r>    19.9279     0.2106     7.1634 </r>
       <r>    20.0982     0.2105     7.1993 </r>
       <r>    20.2684     0.1814     7.2342 </r>
       <r>    20.4386     0.1797     7.2650 </r>
       <r>    20.6088     0.1781     7.2954 </r>
       <r>    20.7790     0.1767     7.3256 </r>
       <r>    20.9492     0.1753     7.3556 </r>
       <r>    21.1194     0.1741     7.3853 </r>
       <r>    21.2896     0.1729     7.4148 </r>
       <r>    21.4598     0.1719     7.4442 </r>
       <r>    21.6301     0.1710     7.4734 </r>
       <r>    21.8003     0.1712     7.5025 </r>
       <r>    21.9705     0.1885     7.5394 </r>
       <r>    22.1407     0.1956     7.5721 </r>
       <r>    22.3109     0.2033     7.6075 </r>
       <r>    22.4811     0.2030     7.6421 </r>
       <r>    22.6513     0.2045     7.6767 </r>
       <r>    22.8215     0.2092     7.7120 </r>
       <r>    22.9918     0.2155     7.7481 </r>
       <r>    23.1620     0.2245     7.7855 </r>
       <r>    23.3322     0.2386     7.8248 </r>
       <r>    23.5024     0.2479     7.8684 </r>
       <r>    23.6726     0.2607     7.9133 </r>
       <r>    23.8428     0.2702     7.9585 </r>
       <r>    24.0130     0.2796     8.0053 </r>
       <r>    24.1832     0.2724     8.0512 </r>
       <r>    24.3534     0.2811     8.0984 </r>
       <r>    24.5237     0.2896     8.1469 </r>
       <r>    24.6939     0.3058     8.1972 </r>
       <r>    24.8641     0.3337     8.2516 </r>
       <r>    25.0343     0.3008     8.3049 </r>
       <r>    25.2045     0.2964     8.3558 </r>
       <r>    25.3747     0.2933     8.4058 </r>
       <r>    25.5449     0.2924     8.4557 </r>
       <r>    25.7151     0.2890     8.5052 </r>
       <r>    25.8854     0.2844     8.5540 </r>
       <r>    26.0556     0.2788     8.6020 </r>
       <r>    26.2258     0.2710     8.6488 </r>
       <r>    26.3960     0.2537     8.6930 </r>
       <r>    26.5662     0.2484     8.7357 </r>
       <r>    26.7364     0.2427     8.7775 </r>
       <r>    26.9066     0.2368     8.8183 </r>
       <r>    27.0768     0.2306     8.8581 </r>
       <r>    27.2470     0.2197     8.8968 </r>
       <r>    27.4173     0.2256     8.9338 </r>
       <r>    27.5875     0.2117     8.9713 </r>
       <r>    27.7577     0.1993     9.0063 </r>
       <r>    27.9279     0.1817     9.0404 </r>
       <r>    28.0981     0.1696     9.0703 </r>
       <r>    28.2683     0.1572     9.0981 </r>
       <r>    28.4385     0.1446     9.1238 </r>
       <r>    28.6087     0.1327     9.1473 </r>
       <r>    28.7789     0.1267     9.1694 </r>
       <r>    28.9492     0.1240     9.1907 </r>
       <r>    29.1194     0.1323     9.2136 </r>
       <r>    29.2896     0.1358     9.2365 </r>
       <r>    29.4598     0.1355     9.2596 </r>
       <r>    29.6300     0.1317     9.2824 </r>
       <r>    29.8002     0.1113     9.3047 </r>
       <r>    29.9704     0.1164     9.3241 </r>
       <r>    30.1406     0.1216     9.3443 </r>
       <r>    30.3109     0.1268     9.3655 </r>
       <r>    30.4811     0.1322     9.3875 </r>
       <r>    30.6513     0.1369     9.4105 </r>
       <r>    30.8215     0.1461     9.4345 </r>
       <r>    30.9917     0.1572     9.4603 </r>
       <r>    31.1619     0.1706     9.4881 </r>
       <r>    31.3321     0.1874     9.5186 </r>
       <r>    31.5023     0.2201     9.5538 </r>
       <r>    31.6725     0.2304     9.5921 </r>
       <r>    31.8428     0.2730     9.6345 </r>
       <r>    32.0130     0.3244     9.6853 </r>
       <r>    32.1832     0.3788     9.7451 </r>
       <r>    32.3534     0.4260     9.8138 </r>
       <r>    32.5236     0.1222     9.8844 </r>
       <r>    32.6938     0.1255     9.9054 </r>
       <r>    32.8640     0.1954     9.9311 </r>
       <r>    33.0342     0.2426     9.9685 </r>
       <r>    33.2045     0.2813    10.0132 </r>
       <r>    33.3747     0.3001    10.0628 </r>
       <r>    33.5449     0.3130    10.1150 </r>
       <r>    33.7151     0.3155    10.1689 </r>
       <r>    33.8853     0.3074    10.2219 </r>
       <r>    34.0555     0.2984    10.2735 </r>
       <r>    34.2257     0.2883    10.3234 </r>
       <r>    34.3959     0.2773    10.3716 </r>
       <r>    34.5661     0.2652    10.4178 </r>
       <r>    34.7364     0.2522    10.4618 </r>
       <r>    34.9066     0.2381    10.5035 </r>
       <r>    35.0768     0.2712    10.5445 </r>
       <r>    35.2470     0.2604    10.5894 </r>
       <r>    35.4172     0.2650    10.6341 </r>
       <r>    35.5874     0.2567    10.6823 </r>
       <r>    35.7576     0.2418    10.7309 </r>
       <r>    35.9278     0.2379    10.7717 </r>
       <r>    36.0981     0.2337    10.8118 </r>
       <r>    36.2683     0.2293    10.8512 </r>
       <r>    36.4385     0.2358    10.8913 </r>
       <r>    36.6087     0.2320    10.9311 </r>
       <r>    36.7789     0.2281    10.9703 </r>
       <r>    36.9491     0.2227    11.0086 </r>
       <r>    37.1193     0.2192    11.0466 </r>
       <r>    37.2895     0.2113    11.0832 </r>
       <r>    37.4597     0.2049    11.1185 </r>
       <r>    37.6300     0.2049    11.1534 </r>
       <r>    37.8002     0.2056    11.1883 </r>
       <r>    37.9704     0.2069    11.2234 </r>
       <r>    38.1406     0.2621    11.2645 </r>
       <r>    38.3108     0.2740    11.3103 </r>
       <r>    38.4810     0.2536    11.3606 </r>
       <r>    38.6512     0.2509    11.4034 </r>
       <r>    38.8214     0.2478    11.4459 </r>
       <r>    38.9917     0.2420    11.4876 </r>
       <r>    39.1619     0.2337    11.5281 </r>
       <r>    39.3321     0.2229    11.5670 </r>
       <r>    39.5023     0.2202    11.6055 </r>
       <r>    39.6725     0.2039    11.6416 </r>
       <r>    39.8427     0.1872    11.6749 </r>
       <r>    40.0129     0.1700    11.7053 </r>
       <r>    40.1831     0.1524    11.7327 </r>
       <r>    40.3533     0.1344    11.7571 </r>
       <r>    40.5236     0.1181    11.7786 </r>
       <r>    40.6938     0.1044    11.7975 </r>
       <r>    40.8640     0.0942    11.8143 </r>
       <r>    41.0342     0.0889    11.8298 </r>
       <r>    41.2044     0.0839    11.8445 </r>
       <r>    41.3746     0.0791    11.8584 </r>
       <r>    41.5448     0.0744    11.8715 </r>
       <r>    41.7150     0.0699    11.8838 </r>
       <r>    41.8853     0.0657    11.8953 </r>
       <r>    42.0555     0.0616    11.9061 </r>
       <r>    42.2257     0.0577    11.9163 </r>
       <r>    42.3959     0.0540    11.9258 </r>
       <r>    42.5661     0.0504    11.9346 </r>
       <r>    42.7363     0.0471    11.9429 </r>
       <r>    42.9065     0.0439    11.9507 </r>
       <r>    43.0767     0.0410    11.9579 </r>
       <r>    43.2469     0.0382    11.9647 </r>
       <r>    43.4172     0.0356    11.9709 </r>
       <r>    43.5874     0.0332    11.9768 </r>
       <r>    43.7576     0.0476    11.9962 </r>
       <r>    43.9278     0.0040    11.9999 </r>
       <r>    44.0980     0.0000    12.0000 </r>
       <r>    44.2682     0.0000    12.0000 </r>
       <r>    44.4384     0.0000    12.0000 </r>
       <r>    44.6086     0.0000    12.0000 </r>
       <r>    44.7788     0.0000    12.0000 </r>
[...]
       </set>
       <set comment="band 5">
        <r>  0.0000  0.0000  0.0000  0.0000  0.0000  0.0000  0.7387  0.0000  0.2462 </r>
       </set>
       <set comment="band 6">
        <r>  0.0000  0.1123  0.1123  0.0000  0.3354  0.0000  0.0000  0.3354  0.0000 </r>
       </set>
       <set comment="band 7">
        <r>  0.3757  0.0000  0.0000  0.0240  0.0000  0.4123  0.0232  0.0000  0.0697 </r>
       </set>
       <set comment="band 8">
        <r>  0.0000  0.1377  0.1377  0.0000  0.1515  0.0000  0.0000  0.1515  0.0000 </r>
       </set>
       <set comment="band 9">
        <r>  0.1819  0.0000  0.0000  0.5177  0.0000  0.0289  0.0117  0.0000  0.0350 </r>
       </set>
       <set comment="band 10">
        <r>  0.0000  0.0033  0.0033  0.0000  0.3451  0.0000  0.0000  0.3451  0.0000 </r>
       </set>
       <set comment="band 11">
        <r>  0.1091  0.0000  0.0000  0.1426  0.0000  0.0011  0.1617  0.0000  0.4851 </r>
       </set>
       <set comment="band 12">
        <r>  0.0000  0.0341  0.0341  0.0000  0.0112  0.0000  0.0000  0.0112  0.0000 </r>
       </set>
      </set>
      <set comment="kpoint 4">
       <set comment="band 1">
        <r>  0.6752  0.0000  0.0000  0.0389  0.0000  0.0000  0.0003  0.0000  0.0010 </r>
       </set>
       <set comment="band 2">
        <r>  0.0000  0.0024  0.0024  0.0000  0.4844  0.0000  0.0000  0.4844  0.0000 </r>
       </set>
       <set comment="band 3">
        <r>  0.0000  0.0024  0.0024  0.0000  0.4844  0.0000  0.0000  0.4844  0.0000 </r>
       </set>
       <set comment="band 4">
        <r>  0.0000  0.0000  0.0000  0.0000  0.0000  0.9774  0.0000  0.0000  0.0000 </r>
       </set>
       <set comment="band 5">
        <r>  0.0000  0.0000  0.0000  0.0000  0.0000  0.0000  0.7135  0.0000  0.2378 </r>
       </set>
       <set comment="band 6">
        <r>  0.0008  0.0000  0.0000  0.0003  0.0000  0.0000  0.2426  0.0000  0.7279 </r>
       </set>
       <set comment="band 7">
        <r>  0.0000  0.0000  0.0000  0.0000  0.0000  0.0000  0.2251  0.0000  0.0750 </r>
       </set>
       <set comment="band 8">
        <r>  0.0000  0.0245  0.0245  0.0000  0.1623  0.0000  0.0000  0.1623  0.0000 </r>
       </set>
       <set comment="band 9">
        <r>  0.0000  0.0245  0.0245  0.0000  0.1623  0.0000  0.0000  0.1623  0.0000 </r>
       </set>
       <set comment="band 10">
        <r>  0.0329  0.0000  0.0000  0.3049  0.0000  0.0000  0.0496  0.0000  0.1487 </r>
       </set>
       <set comment="band 11">
        <r>  0.0000  0.2268  0.2268  0.0000  0.1852  0.0000  0.0000  0.1852  0.0000 </r>
       </set>
       <set comment="band 12">
        <r>  0.0000  0.2268  0.2268  0.0000  0.1852  0.0000  0.0000  0.1852  0.0000 </r>
       </set>
      </set>
      <set comment="kpoint 5">
       <set comment="band 1">
        <r>  0.1023  0.0457  0.0238  0.0457  0.0297  0.2865  0.0400  0.2865  0.0000 </r>
       </set>
       <set comment="band 2">
        <r>  0.0000  0.0596  0.0000  0.0596  0.0000  0.3174  0.0000  0.3174  0.1312 </r>
       </set>
       <set comment="band 3">
        <r>  0.0110  0.0147  0.1551  0.0147  0.6499  0.0063  0.0139  0.0063  0.0000 </r>
       </set>
       <set comment="band 4">
        <r>  0.0000  0.0005  0.0000  0.0005  0.0000  0.0860  0.0000  0.0860  0.8058 </r>
       </set>
       <set comment="band 5">
        <r>  0.0021  0.0002  0.0008  0.0002  0.0214  0.0324  0.8952  0.0324  0.0000 </r>
       </set>
       <set comment="band 6">
        <r>  0.0610  0.0461  0.1255  0.0461  0.2521  0.1596  0.0397  0.1596  0.0000 </r>
       </set>
       <set comment="band 7">
        <r>  0.0000  0.1773  0.0000  0.1773  0.0000  0.1851  0.0000  0.1851  0.0876 </r>
       </set>
       <set comment="band 8">
        <r>  0.4221  0.0062  0.1245  0.0062  0.1097  0.0634  0.0004  0.0634  0.0000 </r>
       </set>
       <set comment="band 9">
        <r>  0.1643  0.1546  0.0571  0.1546  0.1147  0.0453  0.0071  0.0453  0.0000 </r>
       </set>
       <set comment="band 10">
        <r>  0.0000  0.0168  0.0000  0.0168  0.0000  0.0711  0.0000  0.0711  0.1687 </r>
       </set>
       <set comment="band 11">
        <r>  0.0096  0.0186  0.0018  0.0186  0.2237  0.0370  0.1218  0.0370  0.0000 </r>
       </set>
       <set comment="band 12">
        <r>  0.0001  0.0561  0.0001  0.0621  0.0012  0.0061  0.0011  0.0015  0.3460 </r>
       </set>
      </set>
      <set comment="kpoint 6">
       <set comment="band 1">
        <r>  0.5149  0.0279  0.0000  0.1271  0.0304  0.0000  0.0136  0.0000  0.0101 </r>
       </set>
       <set comment="band 2">
        <r>  0.0000  0.0000  0.0051  0.0000  0.0000  0.3733  0.0000  0.5824  0.0000 </r>
       </set>
       <set comment="band 3">
        <r>  0.0049  0.0314  0.0000  0.0189  0.6719  0.0000  0.1641  0.0000  0.0305 </r>
       </set>
       <set comment="band 4">
        <r>  0.0000  0.0014  0.0000  0.0013  0.2229  0.0000  0.5703  0.0000  0.1536 </r>
       </set>
       <set comment="band 5">
        <r>  0.0000  0.0000  0.0108  0.0000  0.0000  0.5978  0.0000  0.3669  0.0000 </r>
       </set>
       <set comment="band 6">
        <r>  0.0108  0.0004  0.0000  0.0031  0.0035  0.0000  0.1839  0.0000  0.7760 </r>
       </set>
       <set comment="band 7">
        <r>  0.0682  0.1583  0.0000  0.0698  0.2844  0.0000  0.1625  0.0000  0.0160 </r>
       </set>
       <set comment="band 8">
        <r>  0.0416  0.0086  0.0000  0.1398  0.0224  0.0000  0.0891  0.0000  0.0989 </r>
       </set>
       <set comment="band 9">
        <r>  0.0000  0.0000  0.3267  0.0000  0.0000  0.0167  0.0000  0.5329  0.0000 </r>
       </set>
       <set comment="band 10">
        <r>  0.0001  0.2676  0.0000  0.0483  0.1789  0.0000  0.1413  0.0000  0.0094 </r>
       </set>
       <set comment="band 11">
        <r>  0.0000  0.0000  0.2822  0.0000  0.0000  0.5004  0.0000  0.0223  0.0000 </r>
       </set>
       <set comment="band 12">
        <r>  0.1404  0.0771  0.0000  0.0675  0.0264  0.0000  0.1441  0.0000  0.0291 </r>
       </set>
      </set>
      <set comment="kpoint 7">
       <set comment="band 1">
        <r>  0.2150  0.0070  0.0000  0.0613  0.3469  0.0000  0.1829  0.0000  0.0066 </r>
       </set>
       <set comment="band 2">
        <r>  0.0000  0.0000  0.0054  0.0000  0.0000  0.4470  0.0000  0.4998  0.0000 </r>
       </set>
       <set comment="band 3">
        <r>  0.0225  0.1676  0.0000  0.1743  0.0898  0.0000  0.0983  0.0000  0.2366 </r>
       </set>
       <set comment="band 4">
        <r>  0.0049  0.0063  0.0000  0.0065  0.3561  0.0000  0.5920  0.0000  0.0001 </r>
       </set>
       <set comment="band 5">
        <r>  0.0000  0.0000  0.0041  0.0000  0.0000  0.5264  0.0000  0.4584  0.0000 </r>
       </set>
       <set comment="band 6">
        <r>  0.0280  0.0510  0.0000  0.0718  0.0202  0.0000  0.0304  0.0000  0.7394 </r>
       </set>
       <set comment="band 7">
        <r>  0.2889  0.1032  0.0000  0.0252  0.3484  0.0000  0.1076  0.0000  0.0075 </r>
       </set>
       <set comment="band 8">
        <r>  0.0371  0.0813  0.0000  0.1180  0.0024  0.0000  0.1037  0.0000  0.0132 </r>
       </set>
       <set comment="band 9">
        <r>  0.0000  0.0000  0.5721  0.0000  0.0000  0.0441  0.0000  0.2273  0.0000 </r>
       </set>
       <set comment="band 10">
        <r>  0.0000  0.0000  0.1516  0.0000  0.0000  0.5122  0.0000  0.3219  0.0000 </r>
       </set>
       <set comment="band 11">
        <r>  0.1221  0.1418  0.0000  0.0083  0.0016  0.0000  0.5125  0.0000  0.0150 </r>
       </set>
       <set comment="band 12">
        <r>  0.0760  0.0300  0.0000  0.0005  0.1052  0.0000  0.0441  0.0000  0.2353 </r>
       </set>
      </set>
      <set comment="kpoint 8">
       <set comment="band 1">
        <r>  0.2753  0.0162  0.0162  0.1738  0.0768  0.0003  0.0325  0.0768  0.0976 </r>
       </set>
       <set comment="band 2">
        <r>  0.0000  0.0280  0.0280  0.0000  0.2106  0.0000  0.3075  0.2106  0.1025 </r>
       </set>
       <set comment="band 3">
        <r>  0.0020  0.0107  0.0107  0.0465  0.1848  0.4664  0.0056  0.1848  0.0168 </r>
       </set>
       <set comment="band 4">
        <r>  0.0000  0.0042  0.0042  0.0000  0.2351  0.0000  0.3586  0.2351  0.1195 </r>
       </set>
       <set comment="band 5">
        <r>  0.0103  0.0009  0.0009  0.0005  0.1131  0.3181  0.1061  0.1131  0.3184 </r>
       </set>
       <set comment="band 6">
        <r>  0.0620  0.0163  0.0163  0.0684  0.0891  0.1868  0.1045  0.0891  0.3135 </r>
       </set>
       <set comment="band 7">
        <r>  0.0000  0.1659  0.1659  0.0000  0.1316  0.0000  0.1704  0.1316  0.0568 </r>
       </set>
       <set comment="band 8">
        <r>  0.2639  0.0746  0.0746  0.1058  0.1126  0.0296  0.0002  0.1126  0.0007 </r>
       </set>
       <set comment="band 9">
        <r>  0.0002  0.2198  0.2198  0.0659  0.0002  0.0503  0.0006  0.0002  0.0018 </r>
       </set>
       <set comment="band 10">
        <r>  0.0000  0.0560  0.0560  0.0000  0.0879  0.0000  0.2520  0.0879  0.0840 </r>
       </set>
       <set comment="band 11">
        <r>  0.1042  0.0006  0.0006  0.0017  0.1273  0.3152  0.0406  0.1273  0.1217 </r>
       </set>
       <set comment="band 12">
        <r>  0.0000  0.1213  0.1213  0.0000  0.0366  0.0000  0.1365  0.0366  0.0455 </r>
       </set>
      </set>
      <set comment="kpoint 9">
       <set comment="band 1">
        <r>  0.0856  0.0168  0.0274  0.0168  0.3943  0.0092  0.2969  0.0092  0.0000 </r>
       </set>
       <set comment="band 2">
        <r>  0.0000  0.1218  0.0000  0.1218  0.0000  0.0635  0.0000  0.0635  0.4468 </r>
       </set>
       <set comment="band 3">
        <r>  0.0104  0.0049  0.0236  0.0049  0.0143  0.3912  0.0855  0.3912  0.0000 </r>
       </set>
       <set comment="band 4">
        <r>  0.0100  0.0015  0.0038  0.0015  0.3672  0.0502  0.4795  0.0502  0.0000 </r>
       </set>
       <set comment="band 5">
        <r>  0.0000  0.0117  0.0000  0.0117  0.0000  0.3202  0.0000  0.3202  0.3165 </r>
       </set>
       <set comment="band 6">
        <r>  0.0000  0.1847  0.0000  0.1847  0.0000  0.1245  0.0000  0.1245  0.2487 </r>
       </set>
       <set comment="band 7">
        <r>  0.3028  0.0401  0.0429  0.0401  0.3360  0.0000  0.1237  0.0000  0.0000 </r>
       </set>
       <set comment="band 8">
        <r>  0.1923  0.0204  0.2666  0.0204  0.0003  0.1034  0.0766  0.1034  0.0000 </r>
       </set>
       <set comment="band 9">
        <r>  0.0002  0.0583  0.2811  0.0583  0.0394  0.0010  0.1048  0.0010  0.0000 </r>
       </set>
       <set comment="band 10">
        <r>  0.0440  0.0585  0.0064  0.0585  0.0055  0.1955  0.2586  0.1955  0.0000 </r>
       </set>
       <set comment="band 11">
        <r>  0.0000  0.0387  0.0000  0.0387  0.0000  0.0096  0.0000  0.0096  0.4134 </r>
       </set>
       <set comment="band 12">
        <r>  0.0540  0.1321  0.0022  0.1321  0.1118  0.2331  0.1611  0.2331  0.0000 </r>
       </set>
      </set>
      <set comment="kpoint 10">
       <set comment="band 1">
        <r>  0.0000  0.0504  0.0504  0.0504  0.2443  0.2443  0.0000  0.2443  0.0000 </r>
       </set>
       <set comment="band 2">
        <r>  0.0000  0.0178  0.0888  0.0448  0.4299  0.2170  0.0000  0.0860  0.0000 </r>
       </set>
       <set comment="band 3">
        <r>  0.0000  0.0831  0.0121  0.0561  0.0587  0.2716  0.0000  0.4026  0.0000 </r>
       </set>
       <set comment="band 4">
        <r>  0.0000  0.0000  0.0000  0.0000  0.0000  0.0000  0.3781  0.0000  0.6086 </r>
       </set>
       <set comment="band 5">
        <r>  0.0000  0.0000  0.0000  0.0000  0.0000  0.0000  0.6086  0.0000  0.3781 </r>
       </set>
       <set comment="band 6">
        <r>  0.0000  0.1176  0.1176  0.1176  0.1514  0.1514  0.0000  0.1514  0.0000 </r>
       </set>
       <set comment="band 7">
        <r>  0.0000  0.0657  0.0535  0.2336  0.0689  0.3007  0.0000  0.0846  0.0000 </r>
       </set>
       <set comment="band 8">
        <r>  0.0000  0.1695  0.1817  0.0016  0.2339  0.0021  0.0000  0.2182  0.0000 </r>
       </set>
       <set comment="band 9">
        <r>  0.8078  0.0000  0.0000  0.0000  0.0000  0.0000  0.0000  0.0000  0.0000 </r>
       </set>
       <set comment="band 10">
        <r>  0.0000  0.0000  0.0000  0.0000  0.0000  0.0000  0.0000  0.0000  0.0000 </r>
       </set>
       <set comment="band 11">
        <r>  0.0000  0.0000  0.0000  0.0000  0.0000  0.0000  0.0000  0.0000  0.0000 </r>
       </set>
       <set comment="band 12">
        <r>  0.0000  0.0000  0.0000  0.0000  0.0000  0.0000  0.0000  0.0000  0.0000 </r>
       </set>
      </set>
      <set comment="kpoint 11">
       <set comment="band 1">
        <r>  0.3332  0.0000  0.0000  0.2372  0.0000  0.0000  0.0412  0.0000  0.1237 </r>
       </set>
       <set comment="band 2">
        <r>  0.0000  0.0000  0.0000  0.0000  0.0000  0.0000  0.6596  0.0000  0.2199 </r>
       </set>
       <set comment="band 3">
        <r>  0.0000  0.0191  0.0191  0.0000  0.4570  0.0000  0.0000  0.4570  0.0000 </r>
       </set>
       <set comment="band 4">
        <r>  0.0000  0.0191  0.0191  0.0000  0.4570  0.0000  0.0000  0.4570  0.0000 </r>
       </set>
       <set comment="band 5">
        <r>  0.0000  0.0000  0.0000  0.0000  0.0000  0.9736  0.0000  0.0000  0.0000 </r>
       </set>
       <set comment="band 6">
        <r>  0.0902  0.0000  0.0000  0.0412  0.0000  0.0000  0.2079  0.0000  0.6238 </r>
       </set>
       <set comment="band 7">
        <r>  0.0000  0.2369  0.2369  0.0000  0.2049  0.0000  0.0000  0.2049  0.0000 </r>
       </set>
       <set comment="band 8">
        <r>  0.0000  0.2369  0.2369  0.0000  0.2049  0.0000  0.0000  0.2049  0.0000 </r>
       </set>
       <set comment="band 9">
        <r>  0.0000  0.0000  0.0000  0.0000  0.0000  0.0000  0.5074  0.0000  0.1691 </r>
       </set>
       <set comment="band 10">
        <r>  0.2448  0.0000  0.0000  0.1815  0.0000  0.0000  0.0136  0.0000  0.0409 </r>
       </set>
       <set comment="band 11">
        <r>  0.0000  0.1356  0.1356  0.0000  0.0610  0.0000  0.0000  0.0610  0.0000 </r>
       </set>
       <set comment="band 12">
        <r>  0.0000  0.1356  0.1356  0.0000  0.0610  0.0000  0.0000  0.0610  0.0000 </r>
       </set>
      </set>
      <set comment="kpoint 12">
       <set comment="band 1">
        <r>  0.0799  0.0008  0.0000  0.1390  0.0881  0.0000  0.3234  0.0000  0.1798 </r>
       </set>
       <set comment="band 2">
        <r>  0.0005  0.0451  0.0000  0.0255  0.0394  0.0000  0.3015  0.0000  0.4329 </r>
       </set>
       <set comment="band 3">
        <r>  0.0000  0.0000  0.0346  0.0000  0.0000  0.3483  0.0000  0.5666  0.0000 </r>
       </set>
       <set comment="band 4">
        <r>  0.0217  0.0266  0.0000  0.0002  0.6971  0.0000  0.1935  0.0000  0.0057 </r>
       </set>
       <set comment="band 5">
        <r>  0.0000  0.0000  0.0040  0.0000  0.0000  0.6233  0.0000  0.3579  0.0000 </r>
       </set>
       <set comment="band 6">
        <r>  0.1256  0.0518  0.0000  0.2422  0.0449  0.0000  0.0611  0.0000  0.3521 </r>
       </set>
       <set comment="band 7">
        <r>  0.1681  0.3164  0.0000  0.0040  0.2294  0.0000  0.0771  0.0000  0.0520 </r>
       </set>
       <set comment="band 8">
        <r>  0.0000  0.0000  0.5873  0.0000  0.0000  0.0351  0.0000  0.2068  0.0000 </r>
       </set>
       <set comment="band 9">
        <r>  0.1125  0.0007  0.0000  0.0254  0.0093  0.0000  0.5182  0.0000  0.0105 </r>
       </set>
       <set comment="band 10">
        <r>  0.0573  0.1578  0.0000  0.0044  0.0290  0.0000  0.0139  0.0000  0.3790 </r>
       </set>
       <set comment="band 11">
        <r>  0.1022  0.0883  0.0000  0.3104  0.0093  0.0000  0.1510  0.0000  0.1591 </r>
       </set>
       <set comment="band 12">
        <r>  0.0000  0.0000  0.1145  0.0000  0.0000  0.5035  0.0000  0.2611  0.0000 </r>
       </set>
      </set>
      <set comment="kpoint 13">
       <set comment="band 1">
        <r>  0.0000  0.0339  0.0000  0.0339  0.0000  0.0133  0.0000  0.0133  0.7445 </r>
       </set>
       <set comment="band 2">
        <r>  0.0000  0.0113  0.0452  0.0113  0.0177  0.0044  0.7445  0.0044  0.0000 </r>
       </set>
       <set comment="band 3">
        <r>  0.0356  0.0114  0.0114  0.0114  0.2884  0.2884  0.0000  0.2884  0.0000 </r>
       </set>
       <set comment="band 4">
        <r>  0.0000  0.0045  0.0181  0.0045  0.5939  0.1485  0.0551  0.1485  0.0000 </r>
       </set>
       <set comment="band 5">
        <r>  0.0000  0.0136  0.0000  0.0136  0.0000  0.4454  0.0000  0.4454  0.0551 </r>
       </set>
       <set comment="band 6">
        <r>  0.0000  0.2573  0.0000  0.2573  0.0000  0.0491  0.0000  0.0491  0.2235 </r>
       </set>
       <set comment="band 7">
        <r>  0.0000  0.0858  0.3430  0.0858  0.0654  0.0164  0.2235  0.0164  0.0000 </r>
       </set>
       <set comment="band 8">
        <r>  0.3598  0.0798  0.0798  0.0798  0.0690  0.0690  0.0000  0.0690  0.0000 </r>
       </set>
       <set comment="band 9">
        <r>  0.0000  0.0498  0.0000  0.0498  0.0000  0.0080  0.0000  0.0080  0.6115 </r>
       </set>
       <set comment="band 10">
        <r>  0.0000  0.0166  0.0664  0.0166  0.0107  0.0027  0.6115  0.0027  0.0000 </r>
       </set>
       <set comment="band 11">
        <r>  0.2969  0.1539  0.1539  0.1539  0.0021  0.0021  0.0000  0.0021  0.0000 </r>
       </set>
       <set comment="band 12">
        <r>  0.1051  0.0120  0.0120  0.0120  0.2302  0.2302  0.0000  0.2302  0.0000 </r>
       </set>
      </set>
      <set comment="kpoint 14">
       <set comment="band 1">
        <r>  0.0045  0.0000  0.0000  0.0469  0.0000  0.0000  0.1959  0.0000  0.5878 </r>
       </set>
       <set comment="band 2">
        <r>  0.0000  0.0000  0.0000  0.0000  0.0000  0.0000  0.6342  0.0000  0.2114 </r>
       </set>
       <set comment="band 3">
        <r>  0.0000  0.0157  0.0157  0.0000  0.4688  0.0000  0.0000  0.4688  0.0000 </r>
       </set>
       <set comment="band 4">
        <r>  0.0000  0.0157  0.0157  0.0000  0.4688  0.0000  0.0000  0.4688  0.0000 </r>
       </set>
       <set comment="band 5">
        <r>  0.0000  0.0000  0.0000  0.0000  0.0000  0.9851  0.0000  0.0000  0.0000 </r>
       </set>
       <set comment="band 6">
        <r>  0.1198  0.0000  0.0000  0.4999  0.0000  0.0000  0.0435  0.0000  0.1305 </r>
       </set>
       <set comment="band 7">
        <r>  0.0000  0.3371  0.3371  0.0000  0.0457  0.0000  0.0000  0.0457  0.0000 </r>
       </set>
       <set comment="band 8">
        <r>  0.0000  0.3371  0.3371  0.0000  0.0457  0.0000  0.0000  0.0457  0.0000 </r>
       </set>
       <set comment="band 9">
        <r>  0.0000  0.0000  0.0000  0.0000  0.0000  0.0000  0.6470  0.0000  0.2157 </r>
       </set>
       <set comment="band 10">
        <r>  0.1353  0.0000  0.0000  0.0066  0.0000  0.0000  0.1593  0.0000  0.4778 </r>
       </set>
       <set comment="band 11">
        <r>  0.5137  0.0000  0.0000  0.1886  0.0000  0.0000  0.0239  0.0000  0.0716 </r>
       </set>
       <set comment="band 12">
        <r>  0.0000  0.0000  0.0000  0.0000  0.0000  0.3803  0.0000  0.0000  0.0000 </r>
       </set>
      </set>
     </set>
    </set>
   </array>
  </projected>
 </calculation>
 <structure name="finalpos" >
  <crystal>
   <varray name="basis" >
    <v>      -1.42500000       1.42500000       1.42500000 </v>
    <v>       1.42500000      -1.42500000       1.42500000 </v>
    <v>       1.42500000       1.42500000      -1.42500000 </v>
   </varray>
   <i name="volume">     11.57456250 </i>
   <varray name="rec_basis" >
    <v>       0.00000000       0.35087719       0.35087719 </v>
    <v>       0.35087719       0.00000000       0.35087719 </v>
    <v>       0.35087719       0.35087719       0.00000000 </v>
   </varray>
  </crystal>
  <varray name="positions" >
   <v>       0.00000000       0.00000000       0.00000000 </v>
  </varray>
 </structure>
</modeling>
