Si beta-tin                             
   2.20000000000000     
     0.987041   -0.000000    0.000000
    -0.493521    0.854803   -0.000000
    -0.000000    0.000000    1.676150
    S
     2
Direct
  0.000000  0.000000  0.000000
  0.333333  0.666667  0.500000
 
   32   32   56
 -3.2865     -3.0410     -2.3245     -1.1972     0.24173      1.8613      3.5163      5.0702      6.4168      7.4938    
  8.2842      8.8096      9.1176      9.2693      9.3277      9.3480      9.3539      9.3480      9.3277      9.2693    
  9.1176      8.8096      8.2842      7.4938      6.4168      5.0702      3.5163      1.8613     0.24173     -1.1972    
 -2.3245     -3.0410     -3.0410     -3.0410     -2.5611     -1.6412     -.36108      1.1635      2.7934      4.3867    
  5.8219      7.0154      7.9290      8.5668      8.9650      9.1789      9.2715      9.3029      9.3144      9.3144    
  9.3029      9.2715      9.1789      8.9650      8.5668      7.9290      7.0154      5.8219      4.3867      2.7934    
  1.1635     -.36108     -1.6412     -2.5611     -2.3245     -2.5589     -2.3245     -1.6412     -.56861     0.79593    
  2.3261      3.8835      5.3393      6.5945      7.5920      8.3176      8.7935      9.0664      9.1955      9.2418    
  9.2571      9.2616      9.2571      9.2418      9.1955      9.0664      8.7935      8.3176      7.5920      6.5945    
  5.3393      3.8835      2.3261     0.79593     -.56861     -1.6412     -1.1972     -1.6349     -1.6349     -1.1972    
 -.36108     0.79593      2.1646      3.6168      5.0248      6.2813      7.3145      8.0935      8.6254      8.9459    
  9.1077      9.1697      9.1874      9.1935      9.1935      9.1874      9.1697      9.1077      8.9459      8.6254    
  8.0935      7.3145      6.2813      5.0248      3.6168      2.1646     0.79593     -.36108     0.24173     -.34931    
 -.55276     -.34931     0.24173      1.1635      2.3261      3.6168      4.9156      6.1143      7.1319      7.9243    
  8.4840      8.8345      9.0197      9.0940      9.1124      9.1165      9.1173      9.1165      9.1124      9.0940    
  9.0197      8.8345      8.4840      7.9243      7.1319      6.1143      4.9156      3.6168      2.3261      1.1635    
  1.8613      1.1816     0.82366     0.82366      1.1816      1.8613      2.7934      3.8835      5.0248      6.1143    
  7.0683      7.8333      8.3898      8.7488      8.9445      9.0245      9.0409      9.0391      9.0364      9.0364    
  9.0390      9.0409      9.0245      8.9445      8.7488      8.3898      7.8334      7.0683      6.1143      5.0248    
  3.8835      2.7934      3.5163      2.8182      2.3669      2.2109      2.3669      2.8182      3.5163      4.3867    
  5.3393      6.2813      7.1319      7.8333      8.3568      8.7023      8.8938      8.9712      8.9816      8.9702    
  8.9600      8.9560      8.9600      8.9702      8.9816      8.9712      8.8938      8.7023      8.3568      7.8334    
  7.1319      6.2813      5.3393      4.3867      5.0702      4.4181      3.9375      3.6827      3.6827      3.9375    
  4.4181      5.0702      5.8219      6.5945      7.3145      7.9243      8.3898      8.7023      8.8759      8.9422    
  8.9422      8.9185      8.8971      8.8848      8.8848      8.8971      8.9185      8.9422      8.9422      8.8760    
  8.7023      8.3898      7.9243      7.3145      6.5945      5.8219      6.4168      5.8592      5.4058      5.1099    
  5.0072      5.1099      5.4058      5.8592      6.4168      7.0154      7.5920      8.0935      8.4840      8.7488    
  8.8938      8.9422      8.9284      8.8909      8.8557      8.8316      8.8231      8.8316      8.8557      8.8909    
  8.9284      8.9422      8.8938      8.7488      8.4840      8.0935      7.5920      7.0154      7.4938      7.0580    
  6.6723      6.3843      6.2304      6.2304      6.3843      6.6723      7.0580      7.4938      7.9290      8.3176    
  8.6254      8.8345      8.9445      8.9712      8.9422      8.8909      8.8413      8.8032      8.7826      8.7826    
  8.8032      8.8413      8.8909      8.9422      8.9712      8.9445      8.8345      8.6254      8.3176      7.9290    
  8.2842      7.9760      7.6795      7.4332      7.2704      7.2135      7.2704      7.4332      7.6795      7.9760    
  8.2842      8.5668      8.7935      8.9459      9.0197      9.0245      8.9816      8.9185      8.8557      8.8032    
  8.7685      8.7564      8.7685      8.8032      8.8557      8.9185      8.9816      9.0245      9.0197      8.9459    
  8.7935      8.5668      8.8096      8.6174      8.4132      8.2256      8.0823      8.0048      8.0048      8.0823    
  8.2256      8.4132      8.6174      8.8096      8.9650      9.0664      9.1077      9.0940      9.0409      8.9702    
  8.8971      8.8316      8.7826      8.7564      8.7564      8.7826      8.8316      8.8971      8.9702      9.0409    
  9.0940      9.1077      9.0664      8.9650      9.1176      9.0184      8.8955      8.7685      8.6584      8.5838    
  8.5574      8.5838      8.6584      8.7685      8.8955      9.0184      9.1176      9.1789      9.1955      9.1697    
  9.1124      9.0390      8.9600      8.8848      8.8231      8.7826      8.7685      8.7826      8.8231      8.8848    
  8.9600      9.0390      9.1124      9.1697      9.1955      9.1789      9.2693      9.2345      9.1734      9.0978    
  9.0222      8.9616      8.9280      8.9280      8.9616      9.0222      9.0978      9.1734      9.2345      9.2693    
  9.2715      9.2418      9.1874      9.1165      9.0364      8.9560      8.8848      8.8316      8.8032      8.8032    
  8.8316      8.8848      8.9560      9.0364      9.1165      9.1874      9.2418      9.2715      9.3277      9.3287    
  9.3063      9.2663      9.2180      9.1726      9.1404      9.1288      9.1404      9.1726      9.2180      9.2663    
  9.3063      9.3287      9.3277      9.3029      9.2571      9.1935      9.1173      9.0364      8.9600      8.8971    
  8.8557      8.8413      8.8557      8.8971      8.9600      9.0364      9.1173      9.1935      9.2571      9.3029    
  9.3480      9.3611      9.3553      9.3333      9.3005      9.2648      9.2348      9.2177      9.2177      9.2348    
  9.2648      9.3005      9.3333      9.3553      9.3611      9.3480      9.3144      9.2616      9.1935      9.1165    
  9.0390      8.9702      8.9185      8.8909      8.8909      8.9185      8.9702      9.0391      9.1165      9.1935    
  9.2616      9.3144      9.3539      9.3731      9.3723      9.3543      9.3247      9.2903      9.2584      9.2359    
  9.2277      9.2359      9.2584      9.2903      9.3247      9.3543      9.3723      9.3731      9.3539      9.3144    
  9.2571      9.1874      9.1124      9.0409      8.9816      8.9422      8.9284      8.9422      8.9816      9.0409    
  9.1124      9.1874      9.2571      9.3144      9.3480      9.3731      9.3772      9.3621      9.3323      9.2945    
  9.2565      9.2260      9.2090      9.2090      9.2260      9.2565      9.2945      9.3323      9.3621      9.3772    
  9.3731      9.3480      9.3029      9.2418      9.1697      9.0940      9.0245      8.9712      8.9422      8.9422    
  8.9712      9.0245      9.0940      9.1697      9.2418      9.3029      9.3277      9.3611      9.3723      9.3621    
  9.3343      9.2950      9.2521      9.2138      9.1876      9.1782      9.1876      9.2138      9.2521      9.2950    
  9.3343      9.3621      9.3723      9.3611      9.3277      9.2715      9.1955      9.1077      9.0197      8.9445    
  8.8938      8.8759      8.8938      8.9445      9.0197      9.1077      9.1955      9.2715      9.2693      9.3287    
  9.3553      9.3543      9.3323      9.2950      9.2501      9.2063      9.1718      9.1528      9.1528      9.1718    
  9.2064      9.2501      9.2950      9.3323      9.3543      9.3553      9.3287      9.2693      9.1789      9.0664    
  8.9459      8.8345      8.7488      8.7023      8.7023      8.7488      8.8345      8.9459      9.0664      9.1789    
  9.1176      9.2345      9.3063      9.3333      9.3247      9.2945      9.2521      9.2063      9.1661      9.1387    
  9.1290      9.1387      9.1661      9.2064      9.2521      9.2945      9.3247      9.3333      9.3063      9.2345    
  9.1176      8.9650      8.7935      8.6254      8.4840      8.3898      8.3568      8.3898      8.4840      8.6254    
  8.7935      8.9650      8.8096      9.0184      9.1734      9.2663      9.3005      9.2903      9.2565      9.2138    
  9.1718      9.1387      9.1205      9.1205      9.1387      9.1718      9.2138      9.2565      9.2903      9.3005    
  9.2663      9.1734      9.0184      8.8096      8.5668      8.3176      8.0935      7.9243      7.8333      7.8333    
  7.9243      8.0935      8.3176      8.5668      8.2842      8.6174      8.8955      9.0978      9.2180      9.2648    
  9.2584      9.2260      9.1876      9.1528      9.1290      9.1205      9.1290      9.1528      9.1876      9.2260    
  9.2584      9.2648      9.2180      9.0978      8.8955      8.6174      8.2842      7.9290      7.5920      7.3145    
  7.1319      7.0683      7.1319      7.3145      7.5920      7.9290      7.4938      7.9760      8.4132      8.7685    
  9.0222      9.1726      9.2348      9.2359      9.2090      9.1782      9.1528      9.1387      9.1387      9.1528    
  9.1782      9.2090      9.2359      9.2348      9.1726      9.0222      8.7685      8.4132      7.9760      7.4938    
  7.0154      6.5945      6.2813      6.1143      6.1143      6.2813      6.5945      7.0154      6.4168      7.0580    
  7.6795      8.2256      8.6584      8.9616      9.1404      9.2177      9.2277      9.2090      9.1876      9.1718    
  9.1661      9.1718      9.1876      9.2090      9.2277      9.2177      9.1404      8.9616      8.6584      8.2256    
  7.6795      7.0580      6.4168      5.8219      5.3393      5.0248      4.9156      5.0248      5.3393      5.8219    
  5.0702      5.8592      6.6723      7.4332      8.0823      8.5838      8.9280      9.1288      9.2177      9.2359    
  9.2260      9.2138      9.2063      9.2063      9.2138      9.2260      9.2359      9.2177      9.1288      8.9280    
  8.5838      8.0823      7.4332      6.6723      5.8592      5.0702      4.3867      3.8835      3.6168      3.6168    
  3.8835      4.3867      3.5163      4.4181      5.4058      6.3843      7.2704      8.0048      8.5574      8.9280    
  9.1404      9.2348      9.2584      9.2565      9.2521      9.2501      9.2521      9.2565      9.2584      9.2348    
  9.1404      8.9280      8.5574      8.0048      7.2704      6.3843      5.4058      4.4181      3.5163      2.7934    
  2.3261      2.1646      2.3261      2.7934      1.8613      2.8182      3.9375      5.1099      6.2304      7.2135    
  8.0048      8.5838      8.9616      9.1726      9.2648      9.2903      9.2945      9.2950      9.2950      9.2945    
  9.2903      9.2648      9.1726      8.9616      8.5838      8.0048      7.2135      6.2304      5.1099      3.9375    
  2.8182      1.8613      1.1635     0.79593     0.79593      1.1635     0.24173      1.1816      2.3669      3.6827    
  5.0072      6.2304      7.2704      8.0823      8.6584      9.0222      9.2180      9.3005      9.3247      9.3323    
  9.3343      9.3323      9.3247      9.3005      9.2180      9.0222      8.6584      8.0823      7.2704      6.2304    
  5.0072      3.6827      2.3669      1.1816     0.24173     -.36108     -.56861     -.36108     -1.1972     -.34931    
 0.82366      2.2109      3.6827      5.1099      6.3843      7.4332      8.2256      8.7685      9.0978      9.2663    
  9.3333      9.3543      9.3621      9.3621      9.3543      9.3333      9.2663      9.0978      8.7685      8.2256    
  7.4332      6.3843      5.1099      3.6827      2.2109     0.82366     -.34931     -1.1972     -1.6412     -1.6412    
 -2.3245     -1.6349     -.55277     0.82366      2.3669      3.9375      5.4058      6.6723      7.6795      8.4132    
  8.8955      9.1734      9.3063      9.3553      9.3723      9.3772      9.3723      9.3553      9.3063      9.1734    
  8.8955      8.4132      7.6795      6.6723      5.4058      3.9375      2.3669     0.82366     -.55276     -1.6349    
 -2.3245     -2.5611     -3.0410     -2.5589     -1.6349     -.34931      1.1816      2.8182      4.4181      5.8592    
  7.0580      7.9760      8.6174      9.0184      9.2345      9.3287      9.3611      9.3731      9.3731      9.3611    
  9.3287      9.2345      9.0184      8.6174      7.9760      7.0580      5.8592      4.4181      2.8182      1.1816    
 -.34931     -1.6349     -2.5589     -3.0410     -3.0712     -2.8291     -2.1225     -1.0115     0.40547      1.9989    
  3.6256      5.1513      6.4718      7.5262      8.2984      8.8099      9.1081      9.2534      9.3085      9.3275    
  9.3330      9.3275      9.3085      9.2534      9.1081      8.8099      8.2984      7.5262      6.4718      5.1513    
  3.6256      1.9989     0.40547     -1.0115     -2.1225     -2.8291     -2.8291     -2.8291     -2.3560     -1.4495    
 -.18888      1.3112      2.9135      4.4784      5.8863      7.0555      7.9488      8.5707      8.9571      9.1632    
  9.2511      9.2804      9.2911      9.2911      9.2804      9.2511      9.1632      8.9571      8.5707      7.9488    
  7.0555      5.8863      4.4784      2.9135      1.3112     -.18888     -1.4495     -2.3560     -2.1225     -2.3535    
 -2.1225     -1.4495     -.39356     0.94887      2.4531      3.9827      5.4110      6.6411      7.6170      8.3251    
  8.7877      9.0513      9.1744      9.2175      9.2317      9.2357      9.2317      9.2175      9.1744      9.0513    
  8.7877      8.3251      7.6170      6.6411      5.4110      3.9827      2.4531     0.94886     -.39356     -1.4495    
 -1.0115     -1.4423     -1.4423     -1.0115     -.18888     0.94887      2.2939      3.7199      5.1012      6.3326    
  7.3435      8.1041      8.6217      8.9316      9.0863      9.1442      9.1601      9.1654      9.1654      9.1601    
  9.1442      9.0863      8.9316      8.6217      8.1041      7.3435      6.3326      5.1012      3.7199      2.2939    
 0.94886     -.18888     0.40547     -.17551     -.37555     -.17551     0.40547      1.3112      2.4531      3.7199    
  4.9937      6.1680      7.1636      7.9373      8.4820      8.8210      8.9984      9.0678      9.0836      9.0866    
  9.0871      9.0866      9.0836      9.0678      8.9984      8.8210      8.4820      7.9373      7.1637      6.1680    
  4.9937      3.7199      2.4531      1.3112      1.9989      1.3317     0.98022     0.98022      1.3317      1.9989    
  2.9135      3.9827      5.1012      6.1680      7.1009      7.8475      8.3889      8.7361      8.9233      8.9978    
  9.0111      9.0077      9.0044      9.0044      9.0077      9.0111      8.9978      8.9233      8.7361      8.3889    
  7.8475      7.1009      6.1680      5.1012      3.9827      2.9135      3.6256      2.9414      2.4989      2.3459    
  2.4989      2.9414      3.6256      4.4784      5.4110      6.3326      7.1636      7.8475      8.3562      8.6900    
  8.8728      8.9442      8.9510      8.9378      8.9265      8.9223      8.9265      8.9378      8.9510      8.9442    
  8.8728      8.6900      8.3562      7.8475      7.1637      6.3326      5.4110      4.4784      5.1513      4.5133    
  4.0429      3.7935      3.7935      4.0429      4.5133      5.1513      5.8863      6.6411      7.3435      7.9373    
  8.3889      8.6900      8.8550      8.9152      8.9113      8.8854      8.8626      8.8498      8.8498      8.8626    
  8.8854      8.9113      8.9152      8.8550      8.6900      8.3889      7.9373      7.3435      6.6411      5.8863    
  6.4718      5.9276      5.4848      5.1958      5.0954      5.1958      5.4848      5.9276      6.4718      7.0555    
  7.6170      8.1041      8.4820      8.7361      8.8728      8.9152      8.8973      8.8574      8.8207      8.7957    
  8.7868      8.7957      8.8207      8.8574      8.8973      8.9152      8.8728      8.7361      8.4820      8.1041    
  7.6170      7.0555      7.5262      7.1024      6.7269      6.4464      6.2964      6.2964      6.4464      6.7269    
  7.1024      7.5262      7.9488      8.3251      8.6217      8.8210      8.9233      8.9442      8.9113      8.8574    
  8.8061      8.7668      8.7456      8.7456      8.7668      8.8061      8.8574      8.9113      8.9442      8.9233    
  8.8210      8.6217      8.3251      7.9488      8.2984      8.0003      7.7130      7.4741      7.3161      7.2608    
  7.3161      7.4741      7.7130      8.0003      8.2984      8.5707      8.7877      8.9316      8.9984      8.9978    
  8.9510      8.8854      8.8207      8.7668      8.7313      8.7189      8.7313      8.7668      8.8207      8.8854    
  8.9510      8.9978      8.9984      8.9316      8.7877      8.5707      8.8099      8.6260      8.4296      8.2488    
  8.1105      8.0355      8.0355      8.1105      8.2488      8.4296      8.6260      8.8099      8.9571      9.0513    
  9.0863      9.0678      9.0111      8.9378      8.8626      8.7957      8.7456      8.7189      8.7189      8.7456    
  8.7957      8.8626      8.9378      9.0111      9.0678      9.0863      9.0513      8.9571      9.1081      9.0154    
  8.8990      8.7779      8.6725      8.6009      8.5756      8.6009      8.6725      8.7779      8.8990      9.0154    
  9.1081      9.1632      9.1744      9.1442      9.0836      9.0077      8.9265      8.8498      8.7868      8.7456    
  8.7313      8.7456      8.7868      8.8498      8.9265      9.0077      9.0836      9.1442      9.1744      9.1632    
  9.2534      9.2237      9.1678      9.0971      9.0258      8.9683      8.9363      8.9363      8.9683      9.0258    
  9.0971      9.1678      9.2237      9.2534      9.2511      9.2175      9.1601      9.0866      9.0044      8.9223    
  8.8498      8.7957      8.7668      8.7668      8.7957      8.8498      8.9223      9.0044      9.0866      9.1601    
  9.2175      9.2511      9.3085      9.3133      9.2950      9.2590      9.2144      9.1719      9.1416      9.1306    
  9.1416      9.1719      9.2144      9.2590      9.2950      9.3133      9.3085      9.2804      9.2317      9.1654    
  9.0871      9.0044      8.9265      8.8626      8.8207      8.8061      8.8207      8.8626      8.9265      9.0044    
  9.0871      9.1654      9.2317      9.2804      9.3275      9.3436      9.3410      9.3222      9.2925      9.2594    
  9.2312      9.2151      9.2151      9.2312      9.2594      9.2925      9.3222      9.3410      9.3436      9.3275    
  9.2911      9.2357      9.1654      9.0866      9.0077      8.9378      8.8854      8.8574      8.8574      8.8854    
  8.9378      9.0077      9.0866      9.1654      9.2357      9.2911      9.3330      9.3549      9.3568      9.3416    
  9.3146      9.2824      9.2522      9.2308      9.2231      9.2308      9.2522      9.2824      9.3146      9.3416    
  9.3568      9.3549      9.3330      9.2911      9.2317      9.1601      9.0836      9.0111      8.9510      8.9113    
  8.8973      8.9113      8.9510      9.0111      9.0836      9.1601      9.2317      9.2911      9.3275      9.3549    
  9.3614      9.3488      9.3213      9.2856      9.2493      9.2199      9.2036      9.2036      9.2199      9.2493    
  9.2856      9.3213      9.3488      9.3614      9.3549      9.3275      9.2804      9.2175      9.1442      9.0678    
  8.9978      8.9442      8.9152      8.9152      8.9442      8.9978      9.0678      9.1442      9.2175      9.2804    
  9.3085      9.3436      9.3568      9.3488      9.3230      9.2856      9.2443      9.2072      9.1817      9.1726    
  9.1817      9.2072      9.2443      9.2856      9.3230      9.3488      9.3568      9.3436      9.3085      9.2511    
  9.1744      9.0863      8.9984      8.9233      8.8728      8.8550      8.8728      8.9233      8.9984      9.0863    
  9.1744      9.2511      9.2534      9.3133      9.3410      9.3416      9.3213      9.2856      9.2421      9.1995    
  9.1657      9.1471      9.1471      9.1657      9.1995      9.2421      9.2856      9.3213      9.3416      9.3410    
  9.3133      9.2534      9.1632      9.0513      8.9316      8.8210      8.7361      8.6900      8.6900      8.7361    
  8.8210      8.9316      9.0513      9.1632      9.1081      9.2237      9.2950      9.3222      9.3146      9.2856    
  9.2443      9.1995      9.1599      9.1330      9.1234      9.1330      9.1599      9.1995      9.2443      9.2856    
  9.3146      9.3222      9.2950      9.2237      9.1081      8.9571      8.7877      8.6217      8.4820      8.3889    
  8.3562      8.3889      8.4820      8.6217      8.7877      8.9571      8.8099      9.0154      9.1678      9.2590    
  9.2925      9.2824      9.2493      9.2072      9.1657      9.1330      9.1150      9.1150      9.1330      9.1657    
  9.2072      9.2493      9.2824      9.2925      9.2590      9.1678      9.0154      8.8099      8.5707      8.3251    
  8.1041      7.9373      7.8475      7.8475      7.9373      8.1041      8.3251      8.5707      8.2984      8.6260    
  8.8990      9.0971      9.2144      9.2594      9.2522      9.2199      9.1817      9.1472      9.1234      9.1150    
  9.1234      9.1471      9.1817      9.2199      9.2522      9.2594      9.2144      9.0971      8.8990      8.6260    
  8.2984      7.9488      7.6170      7.3435      7.1636      7.1009      7.1636      7.3435      7.6170      7.9488    
  7.5262      8.0003      8.4296      8.7779      9.0258      9.1719      9.2312      9.2308      9.2036      9.1726    
  9.1472      9.1330      9.1330      9.1471      9.1726      9.2036      9.2308      9.2312      9.1719      9.0258    
  8.7779      8.4296      8.0003      7.5262      7.0555      6.6411      6.3326      6.1680      6.1680      6.3326    
  6.6411      7.0555      6.4718      7.1024      7.7130      8.2488      8.6725      8.9683      9.1416      9.2151    
  9.2231      9.2036      9.1817      9.1657      9.1599      9.1657      9.1817      9.2036      9.2231      9.2151    
  9.1416      8.9683      8.6725      8.2488      7.7130      7.1024      6.4718      5.8863      5.4110      5.1012    
  4.9937      5.1012      5.4110      5.8863      5.1513      5.9276      6.7269      7.4741      8.1105      8.6009    
  8.9363      9.1306      9.2151      9.2308      9.2199      9.2072      9.1995      9.1995      9.2072      9.2199    
  9.2308      9.2151      9.1306      8.9363      8.6009      8.1105      7.4741      6.7269      5.9276      5.1513    
  4.4784      3.9827      3.7199      3.7199      3.9827      4.4784      3.6256      4.5133      5.4848      6.4464    
  7.3161      8.0355      8.5756      8.9363      9.1416      9.2312      9.2522      9.2493      9.2443      9.2421    
  9.2443      9.2493      9.2522      9.2312      9.1416      8.9363      8.5756      8.0355      7.3161      6.4464    
  5.4848      4.5133      3.6256      2.9135      2.4531      2.2939      2.4531      2.9135      1.9989      2.9414    
  4.0429      5.1958      6.2964      7.2608      8.0355      8.6009      8.9683      9.1719      9.2594      9.2824    
  9.2856      9.2856      9.2856      9.2856      9.2824      9.2594      9.1719      8.9683      8.6009      8.0355    
  7.2608      6.2964      5.1958      4.0429      2.9414      1.9989      1.3112     0.94887     0.94887      1.3112    
 0.40547      1.3317      2.4989      3.7935      5.0954      6.2964      7.3161      8.1105      8.6725      9.0258    
  9.2144      9.2925      9.3146      9.3213      9.3230      9.3213      9.3146      9.2925      9.2144      9.0258    
  8.6725      8.1105      7.3161      6.2964      5.0954      3.7935      2.4989      1.3317     0.40547     -.18888    
 -.39356     -.18888     -1.0115     -.17552     0.98022      2.3459      3.7935      5.1958      6.4464      7.4741    
  8.2488      8.7779      9.0971      9.2590      9.3222      9.3416      9.3488      9.3488      9.3416      9.3222    
  9.2590      9.0971      8.7779      8.2488      7.4741      6.4464      5.1958      3.7935      2.3459     0.98022    
 -.17551     -1.0115     -1.4495     -1.4495     -2.1225     -1.4423     -.37555     0.98022      2.4989      4.0429    
  5.4848      6.7269      7.7130      8.4296      8.8990      9.1678      9.2950      9.3410      9.3568      9.3614    
  9.3568      9.3410      9.2950      9.1678      8.8990      8.4296      7.7130      6.7269      5.4848      4.0429    
  2.4989     0.98022     -.37555     -1.4423     -2.1225     -2.3560     -2.8291     -2.3535     -1.4423     -.17552    
  1.3317      2.9414      4.5133      5.9276      7.1024      8.0003      8.6260      9.0154      9.2237      9.3133    
  9.3436      9.3549      9.3549      9.3436      9.3133      9.2237      9.0154      8.6260      8.0003      7.1024    
  5.9276      4.5133      2.9414      1.3317     -.17551     -1.4423     -2.3535     -2.8291     -2.4397     -2.2075    
 -1.5307     -.46823     0.88368      2.4000      3.9436      5.3867      6.6310      7.6197      8.3387      8.8097    
  9.0794      9.2066      9.2521      9.2674      9.2718      9.2674      9.2521      9.2066      9.0794      8.8097    
  8.3387      7.6197      6.6310      5.3867      3.9436      2.4000     0.88368     -.46823     -1.5307     -2.2075    
 -2.2075     -2.2075     -1.7547     -.88821     0.31447      1.7423      3.2635      4.7448      6.0730      7.1713    
  8.0055      8.5810      8.9335      9.1166      9.1910      9.2142      9.2226      9.2226      9.2142      9.1910    
  9.1166      8.9335      8.5810      8.0055      7.1713      6.0730      4.7448      3.2635      1.7423     0.31447    
 -.88821     -1.7547     -1.5307     -1.7514     -1.5307     -.88821     0.11829      1.3954      2.8232      4.2712    
  5.6194      6.7759      7.6887      8.3459      8.7699      9.0063      9.1122      9.1463      9.1568      9.1597    
  9.1568      9.1463      9.1122      9.0063      8.7699      8.3459      7.6887      6.7759      5.6194      4.2712    
  2.8232      1.3954     0.11829     -.88821     -.46823     -.87860     -.87860     -.46823     0.31447      1.3954    
  2.6708      4.0200      5.3233      6.4812      7.4273      8.1341      8.6096      8.8890      9.0233      9.0693    
  9.0798      9.0829      9.0829      9.0798      9.0693      9.0233      8.8890      8.6096      8.1341      7.4273    
  6.4812      5.3233      4.0200      2.6708      1.3954     0.31447     0.88368     0.33231     0.14237     0.33231    
 0.88368      1.7423      2.8232      4.0200      5.2205      6.3238      7.2551      7.9740      8.4748      8.7809    
  8.9353      8.9904      8.9991      8.9988      8.9981      8.9988      8.9991      8.9904      8.9353      8.7810    
  8.4748      7.9740      7.2551      6.3238      5.2205      4.0200      2.8232      1.7423      2.4000      1.7694    
  1.4370      1.4370      1.7694      2.4000      3.2635      4.2712      5.3233      6.3238      7.1951      7.8879    
  8.3850      8.6981      8.8607      8.9191      8.9234      8.9156      8.9102      8.9102      8.9156      8.9234    
  8.9191      8.8607      8.6981      8.3850      7.8879      7.1951      6.3238      5.3233      4.2712      3.2635    
  3.9436      3.2999      2.8833      2.7392      2.8833      3.2999      3.9436      4.7448      5.6194      6.4812    
  7.2551      7.8879      8.3535      8.6532      8.8106      8.8648      8.8612      8.8426      8.8283      8.8230    
  8.8283      8.8426      8.8612      8.8648      8.8106      8.6532      8.3535      7.8879      7.2551      6.4812    
  5.6194      4.7448      5.3867      4.7899      4.3494      4.1157      4.1157      4.3494      4.7899      5.3867    
  6.0730      6.7759      7.4273      7.9740      8.3850      8.6532      8.7930      8.8354      8.8203      8.7882    
  8.7616      8.7467      8.7467      8.7616      8.7882      8.8203      8.8354      8.7930      8.6532      8.3850    
  7.9740      7.4273      6.7759      6.0730      6.6310      6.1258      5.7140      5.4449      5.3514      5.4449    
  5.7140      6.1258      6.6310      7.1713      7.6887      8.1341      8.4748      8.6981      8.8106      8.8354    
  8.8060      8.7592      8.7179      8.6901      8.6804      8.6901      8.7179      8.7592      8.8060      8.8354    
  8.8106      8.6981      8.4748      8.1341      7.6887      7.1713      7.6197      7.2307      6.8849      6.6260    
  6.4874      6.4874      6.6260      6.8849      7.2307      7.6197      8.0055      8.3459      8.6096      8.7810    
  8.8607      8.8648      8.8203      8.7592      8.7028      8.6600      8.6371      8.6371      8.6600      8.7028    
  8.7592      8.8203      8.8648      8.8607      8.7810      8.6096      8.3459      8.0055      8.3387      8.0702    
  7.8096      7.5920      7.4477      7.3973      7.4477      7.5920      7.8096      8.0702      8.3387      8.5810    
  8.7699      8.8890      8.9353      8.9191      8.8612      8.7882      8.7179      8.6600      8.6221      8.6089    
  8.6221      8.6600      8.7179      8.7882      8.8612      8.9191      8.9353      8.8890      8.7699      8.5810    
  8.8097      8.6500      8.4766      8.3154      8.1914      8.1240      8.1240      8.1914      8.3154      8.4766    
  8.6500      8.8098      8.9335      9.0063      9.0233      8.9905      8.9234      8.8426      8.7616      8.6901    
  8.6371      8.6089      8.6089      8.6371      8.6901      8.7616      8.8426      8.9234      8.9904      9.0233    
  9.0063      8.9335      9.0794      9.0059      8.9085      8.8045      8.7128      8.6501      8.6278      8.6501    
  8.7128      8.8045      8.9085      9.0059      9.0794      9.1166      9.1122      9.0693      8.9991      8.9156    