Si beta-tin                             
   2.20000000000000     
     0.991268   -0.000000    0.000000
    -0.495634    0.858463   -0.000000
    -0.000000    0.000000    1.661887
    S
     2
Direct
 -0.000000  0.000000 -0.000000
  0.333333  0.666667  0.500000
 
   32   32   56
 -.32893974533E+01 -.30466912973E+01 -.23375696434E+01 -.12196661852E+01 0.21133302639E+00
 0.18286302966E+01 0.34903298560E+01 0.50616479334E+01 0.64361705963E+01 0.75491970317E+01
 0.83802541050E+01 0.89465506792E+01 0.92916052981E+01 0.94729984360E+01 0.95515290335E+01
 0.95818425726E+01 0.95910469759E+01 0.95818428555E+01 0.95515294665E+01 0.94729987991E+01
 0.92916053608E+01 0.89465502815E+01 0.83802532162E+01 0.75491957658E+01 0.64361691808E+01
 0.50616466394E+01 0.34903289152E+01 0.18286298311E+01 0.21133301564E+00 -.12196658899E+01
 -.23375692623E+01 -.30466910424E+01 -.30466910424E+01 -.30466908666E+01 -.25711886251E+01
 -.16584635241E+01 -.38542742201E+00 0.11358566784E+01 0.27697871315E+01 0.43768986663E+01
 0.58362227681E+01 0.70628592202E+01 0.80156864333E+01 0.86948418255E+01 0.91322945367E+01
 0.93797924433E+01 0.94972879149E+01 0.95432536805E+01 0.95611618632E+01 0.95611618410E+01
 0.95432535944E+01 0.94972877125E+01 0.93797920555E+01 0.91322938993E+01 0.86948409003E+01
 0.80156852226E+01 0.70628577708E+01 0.58362211653E+01 0.43768970183E+01 0.27697855519E+01
 0.11358552692E+01 -.38542858170E+00 -.16584643809E+01 -.25711891485E+01 -.23375692623E+01
 -.25703291364E+01 -.23375684342E+01 -.16584628696E+01 -.59064047410E+00 0.77161383125E+00
 0.23052593862E+01 0.38744747349E+01 0.53517640088E+01 0.66376296087E+01 0.76726154705E+01
 0.84392622765E+01 0.89557182390E+01 0.92649104531E+01 0.94228867903E+01 0.94884320992E+01
 0.95134973000E+01 0.95211311195E+01 0.95134969889E+01 0.94884315432E+01 0.94228860957E+01
 0.92649097233E+01 0.89557175316E+01 0.84392615771E+01 0.76726146940E+01 0.66376286302E+01
 0.53517627152E+01 0.38744730801E+01 0.23052574306E+01 0.77161175033E+00 -.59064241692E+00
 -.16584643809E+01 -.12196658899E+01 -.16559147445E+01 -.16559141930E+01 -.12196643658E+01
 -.38542643741E+00 0.77161404312E+00 0.21448755174E+01 0.36087530911E+01 0.50370176489E+01
 0.63224547770E+01 0.73916486903E+01 0.82110160478E+01 0.87840599572E+01 0.91427359762E+01
 0.93365233017E+01 0.94218270777E+01 0.94529275205E+01 0.94652995343E+01 0.94652993031E+01
 0.94529269084E+01 0.94218262984E+01 0.93365226191E+01 0.91427356009E+01 0.87840599597E+01
 0.82110163196E+01 0.73916489705E+01 0.63224547368E+01 0.50370170086E+01 0.36087517285E+01
 0.21448735320E+01 0.77161175033E+00 -.38542858170E+00 0.21133301564E+00 -.38041765403E+00
 -.58394136288E+00 -.38041661521E+00 0.21133479044E+00 0.11358572684E+01 0.23052590919E+01
 0.36087526091E+01 0.49279171871E+01 0.61547578669E+01 0.72074721180E+01 0.80395167985E+01
 0.86404775920E+01 0.90302898637E+01 0.92498535060E+01 0.93508411316E+01 0.93864324906E+01
 0.93997042467E+01 0.94036177739E+01 0.93997037898E+01 0.93864317910E+01 0.93508405371E+01
 0.92498533653E+01 0.90302903880E+01 0.86404787620E+01 0.80395183497E+01 0.72074736138E+01
 0.61547588362E+01 0.49279172819E+01 0.36087517285E+01 0.23052574306E+01 0.11358552692E+01
 0.18286298311E+01 0.11440089425E+01 0.78391664562E+00 0.78391704784E+00 0.11440099989E+01
 0.18286311403E+01 0.27697865931E+01 0.38744733838E+01 0.50370163100E+01 0.61547571615E+01
 0.71433520805E+01 0.79475575079E+01 0.85451396863E+01 0.89441603854E+01 0.91757689138E+01
 0.92850689402E+01 0.93220351473E+01 0.93321897692E+01 0.93356772724E+01 0.93356770467E+01
 0.93321892157E+01 0.93220345907E+01 0.92850687868E+01 0.91757694979E+01 0.89441618366E+01
 0.85451418639E+01 0.79475600269E+01 0.71433544230E+01 0.61547588362E+01 0.50370170086E+01
 0.38744730801E+01 0.27697855519E+01 0.34903289152E+01 0.27816319242E+01 0.23243961963E+01
 0.21664730472E+01 0.23243965266E+01 0.27816323798E+01 0.34903291596E+01 0.43768967048E+01
 0.53517616150E+01 0.63224528306E+01 0.72074711144E+01 0.79475573252E+01 0.85117445486E+01
 0.88974757703E+01 0.91258996335E+01 0.92343558743E+01 0.92679834628E+01 0.92713856657E+01
 0.92700422187E+01 0.92691414519E+01 0.92700418383E+01 0.92713851174E+01 0.92679830973E+01
 0.92343560568E+01 0.91259006126E+01 0.88974775839E+01 0.85117469979E+01 0.79475600269E+01
 0.72074736138E+01 0.63224547368E+01 0.53517627152E+01 0.43768970183E+01 0.50616466394E+01
 0.43928054661E+01 0.39013605569E+01 0.36412363583E+01 0.36412362806E+01 0.39013602883E+01
 0.43928049174E+01 0.50616457122E+01 0.58362198073E+01 0.66376268807E+01 0.73916469762E+01
 0.80395163441E+01 0.85451401130E+01 0.88974763147E+01 0.91083152409E+01 0.92067431524E+01
 0.92319168913E+01 0.92254424401E+01 0.92153987570E+01 0.92090320341E+01 0.92090318572E+01
 0.92153983005E+01 0.92254419035E+01 0.92319165385E+01 0.92067432302E+01 0.91083159053E+01
 0.88974775839E+01 0.85451418639E+01 0.80395183497E+01 0.73916489705E+01 0.66376286302E+01
 0.58362211653E+01 0.64361691808E+01 0.58563376021E+01 0.53869050908E+01 0.50814274227E+01
 0.49754576713E+01 0.50814268150E+01 0.53869039748E+01 0.58563361562E+01 0.64361676256E+01
 0.70628563267E+01 0.76726135412E+01 0.82110155704E+01 0.86404784498E+01 0.89441619219E+01
 0.91259010019E+01 0.92067438010E+01 0.92192441877E+01 0.92007248833E+01 0.91792224764E+01
 0.91636018261E+01 0.91579504841E+01 0.91636015992E+01 0.91792220502E+01 0.92007243144E+01
 0.92192435621E+01 0.92067432302E+01 0.91259006126E+01 0.89441618366E+01 0.86404787620E+01
 0.82110163196E+01 0.76726146940E+01 0.70628577708E+01 0.75491957658E+01 0.70870887522E+01
 0.66810654026E+01 0.63791713182E+01 0.62182533447E+01 0.62182528789E+01 0.63791700518E+01
 0.66810636902E+01 0.70870870688E+01 0.75491945712E+01 0.80156848346E+01 0.84392620920E+01
 0.87840612413E+01 0.90302921261E+01 0.91757713126E+01 0.92343576142E+01 0.92319176386E+01
 0.92007249258E+01 0.91665680500E+01 0.91391738643E+01 0.91240894744E+01 0.91240894837E+01
 0.91391738308E+01 0.91665678169E+01 0.92007243144E+01 0.92319165385E+01 0.92343560568E+01
 0.91757694979E+01 0.90302903880E+01 0.87840599597E+01 0.84392615771E+01 0.80156852226E+01
 0.83802532162E+01 0.80437225473E+01 0.77239312083E+01 0.74603660288E+01 0.72869308382E+01
 0.72264401276E+01 0.72869298749E+01 0.74603644485E+01 0.77239295922E+01 0.80437215259E+01
 0.83802532687E+01 0.86948422051E+01 0.89557199135E+01 0.91427385923E+01 0.92498563573E+01
 0.92850712189E+01 0.92679846228E+01 0.92254424764E+01 0.91792219070E+01 0.91391733777E+01
 0.91122453022E+01 0.91027795018E+01 0.91122456554E+01 0.91391738308E+01 0.91792220502E+01
 0.92254419035E+01 0.92679830973E+01 0.92850687868E+01 0.92498533653E+01 0.91427356009E+01
 0.89557175316E+01 0.86948409003E+01 0.89465502815E+01 0.87262215872E+01 0.84976791174E+01
 0.82908290237E+01 0.81341137119E+01 0.80496981394E+01 0.80496977256E+01 0.81341126523E+01
 0.82908278001E+01 0.84976783456E+01 0.87262218029E+01 0.89465517502E+01 0.91322965152E+01
 0.92649130312E+01 0.93365259522E+01 0.93508432249E+01 0.93220361670E+01 0.92713854600E+01
 0.92153976557E+01 0.91636004832E+01 0.91240884960E+01 0.91027791133E+01 0.91027795018E+01
 0.91240894837E+01 0.91636015992E+01 0.92153983005E+01 0.92713851174E+01 0.93220345907E+01
 0.93508405371E+01 0.93365226191E+01 0.92649097233E+01 0.91322938993E+01 0.92916053608E+01
 0.91664728768E+01 0.90202300790E+01 0.88736408163E+01 0.87487406747E+01 0.86649137209E+01
 0.86354043812E+01 0.86649133243E+01 0.87487401277E+01 0.88736405176E+01 0.90202304261E+01
 0.91664741057E+01 0.92916074370E+01 0.93797946563E+01 0.94228886930E+01 0.94218283173E+01
 0.93864327921E+01 0.93321890397E+01 0.92700406648E+01 0.92090301536E+01 0.91579488619E+01
 0.91240884960E+01 0.91122453022E+01 0.91240894744E+01 0.91579504841E+01 0.92090318572E+01
 0.92700418383E+01 0.93321892157E+01 0.93864317910E+01 0.94218262984E+01 0.94228860957E+01
 0.93797920555E+01 0.94729987991E+01 0.94162006773E+01 0.93344150688E+01 0.92405339281E+01
 0.91503497774E+01 0.90795429400E+01 0.90406594076E+01 0.90406594432E+01 0.90795430840E+01
 0.91503501223E+01 0.92405345689E+01 0.93344160397E+01 0.94162019029E+01 0.94730000824E+01
 0.94972887700E+01 0.94884320786E+01 0.94529267049E+01 0.93997027900E+01 0.93356753926E+01
 0.92691394677E+01 0.92090301536E+01 0.91636004832E+01 0.91391733777E+01 0.91391738643E+01
 0.91636018261E+01 0.92090320341E+01 0.92691414519E+01 0.93356770467E+01 0.93997037898E+01
 0.94529269084E+01 0.94884315432E+01 0.94972877125E+01 0.95515294665E+01 0.95353627987E+01
 0.94962687117E+01 0.94409155784E+01 0.93796637167E+01 0.93244074712E+01 0.92860938147E+01
 0.92724027965E+01 0.92860943223E+01 0.93244083599E+01 0.93796647628E+01 0.94409165130E+01
 0.94962692803E+01 0.95353628155E+01 0.95515288491E+01 0.95432523739E+01 0.95134952946E+01
 0.94652973299E+01 0.94036157425E+01 0.93356753926E+01 0.92700406648E+01 0.92153976557E+01
 0.91792219070E+01 0.91665680500E+01 0.91792224764E+01 0.92153987570E+01 0.92700422187E+01
 0.93356772724E+01 0.94036177739E+01 0.94652993031E+01 0.95134969889E+01 0.95432535944E+01
 0.95818428555E+01 0.95824402552E+01 0.95645876061E+01 0.95311864449E+01 0.94883030193E+01
 0.94444727963E+01 0.94087808897E+01 0.93887916509E+01 0.93887920488E+01 0.94087819381E+01
 0.94444741053E+01 0.94883040764E+01 0.95311867749E+01 0.95645869164E+01 0.95824385232E+01
 0.95818403298E+01 0.95611589598E+01 0.95211283754E+01 0.94652973299E+01 0.93997027900E+01
 0.93321890397E+01 0.92713854600E+01 0.92254424764E+01 0.92007249258E+01 0.92007248833E+01
 0.92254424401E+01 0.92713856657E+01 0.93321897692E+01 0.93997042467E+01 0.94652995343E+01
 0.95211311195E+01 0.95611618410E+01 0.95910469759E+01 0.96009057482E+01 0.95913243615E+01
 0.95656224984E+01 0.95294218707E+01 0.94896441215E+01 0.94537168413E+01 0.94287300091E+01
 0.94197834872E+01 0.94287307844E+01 0.94537180531E+01 0.94896452091E+01 0.95294222456E+01
 0.95656217507E+01 0.95913224081E+01 0.96009028730E+01 0.95910437479E+01 0.95611589598E+01
 0.95134952946E+01 0.94529267049E+01 0.93864327921E+01 0.93220361670E+01 0.92679846228E+01
 0.92319176386E+01 0.92192441877E+01 0.92319168913E+01 0.92679834628E+01 0.93220351473E+01
 0.93864324906E+01 0.94529275205E+01 0.95134973000E+01 0.95611618632E+01 0.95818425726E+01
 0.96009054509E+01 0.95995173852E+01 0.95796745114E+01 0.95460494128E+01 0.95053614829E+01
 0.94653746314E+01 0.94336265239E+01 0.94160980673E+01 0.94160983808E+01 0.94336273094E+01
 0.94653754818E+01 0.95053618914E+01 0.95460489677E+01 0.95796730625E+01 0.95995151242E+01
 0.96009028730E+01 0.95818403298E+01 0.95432523739E+01 0.94884320786E+01 0.94218283173E+01
 0.93508432249E+01 0.92850712189E+01 0.92343576142E+01 0.92067438010E+01 0.92067431524E+01
 0.92343558743E+01 0.92850689402E+01 0.93508411316E+01 0.94218270777E+01 0.94884320992E+01
 0.95432536805E+01 0.95515290335E+01 0.95824394658E+01 0.95913236694E+01 0.95796741974E+01
 0.95510901923E+01 0.95116675275E+01 0.94690794317E+01 0.94313483169E+01 0.94054952006E+01
 0.93963109190E+01 0.94054954920E+01 0.94313487258E+01 0.94690796829E+01 0.95116673638E+01
 0.95510894949E+01 0.95796730625E+01 0.95913224081E+01 0.95824385232E+01 0.95515288491E+01
 0.94972887700E+01 0.94228886930E+01 0.93365259522E+01 0.92498563573E+01 0.91757713126E+01
 0.91259010019E+01 0.91083152409E+01 0.91258996335E+01 0.91757689138E+01 0.92498535060E+01
 0.93365233017E+01 0.94228867903E+01 0.94972879149E+01 0.94729984360E+01 0.95353617889E+01
 0.95645864322E+01 0.95656216488E+01 0.95460490663E+01 0.95116675125E+01 0.94698805784E+01
 0.94289321851E+01 0.93965628033E+01 0.93787521696E+01 0.93787521715E+01 0.93965627953E+01
 0.94289321359E+01 0.94698804678E+01 0.95116673638E+01 0.95460489677E+01 0.95656217507E+01
 0.95645869164E+01 0.95353628155E+01 0.94730000824E+01 0.93797946563E+01 0.92649130312E+01
 0.91427385923E+01 0.90302921261E+01 0.89441619219E+01 0.88974763147E+01 0.88974757703E+01
 0.89441603854E+01 0.90302898637E+01 0.91427359762E+01 0.92649104531E+01 0.93797924433E+01
 0.92916052981E+01 0.94161997923E+01 0.94962674012E+01 0.95311853024E+01 0.95294212857E+01
 0.95053614534E+01 0.94690796758E+01 0.94289323922E+01 0.93931692962E+01 0.93686737715E+01
 0.93599817893E+01 0.93686735601E+01 0.93931689750E+01 0.94289321359E+01 0.94690796829E+01
 0.95053618914E+01 0.95294222456E+01 0.95311867749E+01 0.94962692803E+01 0.94162019029E+01
 0.92916074370E+01 0.91322965152E+01 0.89557199135E+01 0.87840612413E+01 0.86404784498E+01
 0.85451401130E+01 0.85117445486E+01 0.85451396863E+01 0.86404775920E+01 0.87840599572E+01
 0.89557182390E+01 0.91322945367E+01 0.89465506792E+01 0.91664724125E+01 0.93344139774E+01
 0.94409144457E+01 0.94883023690E+01 0.94896441168E+01 0.94653750770E+01 0.94313488852E+01
 0.93965632514E+01 0.93686740002E+01 0.93532669315E+01 0.93532667538E+01 0.93686735601E+01
 0.93965627953E+01 0.94313487258E+01 0.94653754818E+01 0.94896452091E+01 0.94883040764E+01
 0.94409165130E+01 0.93344160397E+01 0.91664741057E+01 0.89465517502E+01 0.86948422051E+01
 0.84392620920E+01 0.82110155704E+01 0.80395163441E+01 0.79475573252E+01 0.79475575079E+01
 0.80395167985E+01 0.82110160478E+01 0.84392622765E+01 0.86948418255E+01 0.83802541050E+01
 0.87262216837E+01 0.90202294431E+01 0.92405330540E+01 0.93796631697E+01 0.94444728587E+01
 0.94537174165E+01 0.94336273139E+01 0.94054959485E+01 0.93787527584E+01 0.93599821827E+01
 0.93532669315E+01 0.93599817893E+01 0.93787521715E+01 0.94054954920E+01 0.94336273094E+01
 0.94537180531E+01 0.94444741053E+01 0.93796647628E+01 0.92405345689E+01 0.90202304261E+01
 0.87262218029E+01 0.83802532687E+01 0.80156848346E+01 0.76726135412E+01 0.73916469762E+01
 0.72074711144E+01 0.71433520805E+01 0.72074721180E+01 0.73916486903E+01 0.76726154705E+01
 0.80156864333E+01 0.75491970317E+01 0.80437231352E+01 0.84976789652E+01 0.88736402986E+01
 0.91503494266E+01 0.93244076219E+01 0.94087815156E+01 0.94287308484E+01 0.94160988776E+01
 0.93963116153E+01 0.93787527584E+01 0.93686740002E+01 0.93686737715E+01 0.93787521696E+01
 0.93963109190E+01 0.94160983808E+01 0.94287307844E+01 0.94087819381E+01 0.93244083599E+01
 0.91503501223E+01 0.88736405176E+01 0.84976783456E+01 0.80437215259E+01 0.75491945712E+01
 0.70628563267E+01 0.66376268807E+01 0.63224528306E+01 0.61547571615E+01 0.61547578669E+01
 0.63224547770E+01 0.66376296087E+01 0.70628592202E+01 0.64361705963E+01 0.70870895715E+01
 0.77239313445E+01 0.82908287662E+01 0.87487404918E+01 0.90795431593E+01 0.92860944287E+01
 0.93887924010E+01 0.94197841302E+01 0.94160988776E+01 0.94054959485E+01 0.93965632514E+01
 0.93931692962E+01 0.93965628033E+01 0.94054952006E+01 0.94160980673E+01 0.94197834872E+01
 0.93887920488E+01 0.92860943223E+01 0.90795430840E+01 0.87487401277E+01 0.82908278001E+01
 0.77239295922E+01 0.70870870688E+01 0.64361676256E+01 0.58362198073E+01 0.53517616150E+01
 0.50370163100E+01 0.49279171871E+01 0.50370176489E+01 0.53517640088E+01 0.58362227681E+01
 0.50616479334E+01 0.58563382881E+01 0.66810654735E+01 0.74603657684E+01 0.81341135467E+01
 0.86649139439E+01 0.90406599803E+01 0.92724034083E+01 0.93887924010E+01 0.94287308484E+01
 0.94336273139E+01 0.94313488852E+01 0.94289323922E+01 0.94289321851E+01 0.94313483169E+01
 0.94336265239E+01 0.94287300091E+01 0.93887916509E+01 0.92724027965E+01 0.90406594432E+01
 0.86649133243E+01 0.81341126523E+01 0.74603644485E+01 0.66810636902E+01 0.58563361562E+01
 0.50616457122E+01 0.43768967048E+01 0.38744733838E+01 0.36087526091E+01 0.36087530911E+01
 0.38744747349E+01 0.43768986663E+01 0.34903298560E+01 0.43928056744E+01 0.53869047099E+01
 0.63791707172E+01 0.72869304646E+01 0.80496982682E+01 0.86354049207E+01 0.90406599803E+01
 0.92860944287E+01 0.94087815156E+01 0.94537174165E+01 0.94653750770E+01 0.94690796758E+01
 0.94698805784E+01 0.94690794317E+01 0.94653746314E+01 0.94537168413E+01 0.94087808897E+01
 0.92860938147E+01 0.90406594076E+01 0.86354043812E+01 0.80496977256E+01 0.72869298749E+01
 0.63791700518E+01 0.53869039748E+01 0.43928049174E+01 0.34903291596E+01 0.27697865931E+01
 0.23052590919E+01 0.21448755174E+01 0.23052593862E+01 0.27697871315E+01 0.18286302966E+01
 0.27816314526E+01 0.39013594493E+01 0.50814261953E+01 0.62182525413E+01 0.72264400596E+01
 0.80496982682E+01 0.86649139439E+01 0.90795431593E+01 0.93244076219E+01 0.94444728587E+01
 0.94896441168E+01 0.95053614534E+01 0.95116675125E+01 0.95116675275E+01 0.95053614829E+01
 0.94896441215E+01 0.94444727963E+01 0.93244074712E+01 0.90795429400E+01 0.86649137209E+01
 0.80496981394E+01 0.72264401276E+01 0.62182528789E+01 0.50814268150E+01 0.39013602883E+01
 0.27816323798E+01 0.18286311403E+01 0.11358572684E+01 0.77161404312E+00 0.77161383125E+00
 0.11358566784E+01 0.21133302639E+00 0.11440078081E+01 0.23243943122E+01 0.36412343892E+01
 0.49754563093E+01 0.62182525413E+01 0.72869304646E+01 0.81341135467E+01 0.87487404918E+01
 0.91503494266E+01 0.93796631697E+01 0.94883023690E+01 0.95294212857E+01 0.95460490663E+01
 0.95510901923E+01 0.95460494128E+01 0.95294218707E+01 0.94883030193E+01 0.93796637167E+01
 0.91503497774E+01 0.87487406747E+01 0.81341137119E+01 0.72869308382E+01 0.62182533447E+01
 0.49754576713E+01 0.36412362806E+01 0.23243965266E+01 0.11440099989E+01 0.21133479044E+00
 -.38542643741E+00 -.59064047410E+00 -.38542742201E+00 -.12196661852E+01 -.38041920913E+00
 0.78391420311E+00 0.21664704610E+01 0.36412343892E+01 0.50814261953E+01 0.63791707172E+01
 0.74603657684E+01 0.82908287662E+01 0.88736402986E+01 0.92405330540E+01 0.94409144457E+01
 0.95311853024E+01 0.95656216488E+01 0.95796741974E+01 0.95796745114E+01 0.95656224984E+01
 0.95311864449E+01 0.94409155784E+01 0.92405339281E+01 0.88736408163E+01 0.82908290237E+01
 0.74603660288E+01 0.63791713182E+01 0.50814274227E+01 0.36412363583E+01 0.21664730472E+01
 0.78391704784E+00 -.38041661521E+00 -.12196643658E+01 -.16584628696E+01 -.16584635241E+01
 -.23375696434E+01 -.16559163223E+01 -.58394392164E+00 0.78391420311E+00 0.23243943122E+01
 0.39013594493E+01 0.53869047099E+01 0.66810654735E+01 0.77239313445E+01 0.84976789652E+01
 0.90202294431E+01 0.93344139774E+01 0.94962674012E+01 0.95645864322E+01 0.95913236694E+01
 0.95995173852E+01 0.95913243615E+01 0.95645876061E+01 0.94962687117E+01 0.93344150688E+01
 0.90202300790E+01 0.84976791174E+01 0.77239312083E+01 0.66810654026E+01 0.53869050908E+01
 0.39013605569E+01 0.23243961963E+01 0.78391664562E+00 -.58394136288E+00 -.16559141930E+01
 -.23375684342E+01 -.25711886251E+01 -.30466912973E+01 -.25703303054E+01 -.16559163223E+01
 -.38041920913E+00 0.11440078081E+01 0.27816314526E+01 0.43928056744E+01 0.58563382881E+01
 0.70870895715E+01 0.80437231352E+01 0.87262216837E+01 0.91664724125E+01 0.94161997923E+01
 0.95353617889E+01 0.95824394658E+01 0.96009054509E+01 0.96009057482E+01 0.95824402552E+01
 0.95353627987E+01 0.94162006773E+01 0.91664728768E+01 0.87262215872E+01 0.80437225473E+01
 0.70870887522E+01 0.58563376021E+01 0.43928054661E+01 0.27816319242E+01 0.11440089425E+01
 -.38041765403E+00 -.16559147445E+01 -.25703291364E+01 -.30466908666E+01 -.30693762262E+01
 -.28301217851E+01 -.21313103226E+01 -.10303071334E+01 0.37798030236E+00 0.19682338422E+01
 0.36006411906E+01 0.51427284266E+01 0.64901443831E+01 0.75796549231E+01 0.83915464945E+01
 0.89431758147E+01 0.92777865462E+01 0.94524412003E+01 0.95273041928E+01 0.95562118742E+01
 0.95650095684E+01 0.95562121560E+01 0.95273046240E+01 0.94524415620E+01 0.92777866088E+01
 0.89431754192E+01 0.83915456099E+01 0.75796536632E+01 0.64901429741E+01 0.51427271386E+01
 0.36006402541E+01 0.19682333788E+01 0.37798029161E+00 -.10303068395E+01 -.21313099433E+01
 -.28301215314E+01 -.28301215314E+01 -.28301213716E+01 -.23616700051E+01 -.14628670334E+01
 -.21005155572E+00 0.12859159718E+01 0.28912979097E+01 0.44688923715E+01 0.58999464620E+01
 0.71013113132E+01 0.80329353886E+01 0.86953587517E+01 0.91204461027E+01 0.93595254732E+01
 0.94719644700E+01 0.95155824231E+01 0.95326675471E+01 0.95326675280E+01 0.95155823450E+01
 0.94719642774E+01 0.93595250935E+01 0.91204454695E+01 0.86953578272E+01 0.80329341789E+01
 0.71013098712E+01 0.58999448793E+01 0.44688907612E+01 0.28912963857E+01 0.12859146314E+01
 -.21005264265E+00 -.14628678255E+01 -.23616704838E+01 -.21313099433E+01 -.23604755520E+01
 -.21313091681E+01 -.14628664090E+01 -.41231863788E+00 0.92704096617E+00 0.24337969973E+01
 0.39742402377E+01 0.54231047035E+01 0.66828165938E+01 0.76952453308E+01 0.84435862590E+01
 0.89460789970E+01 0.92453602361E+01 0.93969711267E+01 0.94590870345E+01 0.94828220687E+01
 0.94900516952E+01 0.94828217674E+01 0.94590864938E+01 0.93969704459E+01 0.92453595126E+01
 0.89460782865E+01 0.84435855508E+01 0.76952445491E+01 0.66828156259E+01 0.54231034477E+01
 0.39742386537E+01 0.24337951426E+01 0.92703900420E+00 -.41232046291E+00 -.14628678255E+01
 -.10303068395E+01 -.14593814255E+01 -.14593809037E+01 -.10303053978E+01 -.21005061593E+00
 0.92704116828E+00 0.22758043887E+01 0.37125518199E+01 0.51131957186E+01 0.63725029884E+01
 0.74185566641E+01 0.82186462727E+01 0.87765660232E+01 0.91241318554E+01 0.93104188656E+01
 0.93912893884E+01 0.94203915684E+01 0.94319707006E+01 0.94319704746E+01 0.94203909691E+01
 0.93912886223E+01 0.93104181886E+01 0.91241314730E+01 0.87765660066E+01 0.82186465214E+01
 0.74185569307E+01 0.63725029592E+01 0.51131951249E+01 0.37125505426E+01 0.22758025191E+01
 0.92703900420E+00 -.21005264265E+00 0.37798029161E+00 -.20335003800E+00 -.40332573481E+00
 -.20334904420E+00 0.37798198712E+00 0.12859165355E+01 0.24337967138E+01 0.37125513559E+01
 0.50057525280E+01 0.62073513710E+01 0.72371300481E+01 0.80495827161E+01 0.86347690625E+01
 0.90126439438E+01 0.92238232728E+01 0.93195227635E+01 0.93523807228E+01 0.93644920845E+01
 0.93680234354E+01 0.93644916347E+01 0.93523800324E+01 0.93195221726E+01 0.92238231230E+01
 0.90126444437E+01 0.86347701966E+01 0.80495842298E+01 0.72371315188E+01 0.62073523408E+01
 0.50057526569E+01 0.37125505426E+01 0.24337951426E+01 0.12859146314E+01 0.19682333788E+01
 0.12965431941E+01 0.94317676580E+00 0.94317715739E+00 0.12965442220E+01 0.19682346508E+01
 0.28912973929E+01 0.39742389379E+01 0.51131944285E+01 0.62073506907E+01 0.71739580172E+01
 0.79589140041E+01 0.85406107788E+01 0.89272833841E+01 0.91499266705E+01 0.92532870289E+01
 0.92868721666E+01 0.92954724791E+01 0.92982221461E+01 0.92982219234E+01 0.92954719322E+01
 0.92868716145E+01 0.92532868708E+01 0.91499272354E+01 0.89272848004E+01 0.85406129099E+01
 0.79589164736E+01 0.71739603179E+01 0.62073523408E+01 0.51131951249E+01 0.39742386537E+01
 0.28912963857E+01 0.36006402541E+01 0.29063266312E+01 0.24582622958E+01 0.23034882089E+01
 0.24582626339E+01 0.29063271038E+01 0.36006405262E+01 0.44688904870E+01 0.54231023978E+01
 0.63725011112E+01 0.72371290803E+01 0.79589138289E+01 0.85076276369E+01 0.88810246827E+01
 0.91002291402E+01 0.92023309247E+01 0.92320863700E+01 0.92335432832E+01 0.92311368192E+01
 0.92298821215E+01 0.92311364449E+01 0.92335427438E+01 0.92320860107E+01 0.92023311045E+01
 0.91002301028E+01 0.88810264639E+01 0.85076300392E+01 0.79589164736E+01 0.72371315188E+01
 0.63725029592E+01 0.54231034477E+01 0.44688907612E+01 0.51427271386E+01 0.44885574860E+01
 0.40077451982E+01 0.37532051202E+01 0.37532050586E+01 0.40077449759E+01 0.44885570078E+01
 0.51427262972E+01 0.58999436126E+01 0.66828139631E+01 0.74185550104E+01 0.80495822801E+01
 0.85406111945E+01 0.88810252106E+01 0.90827123349E+01 0.91746181238E+01 0.91956062584E+01
 0.91868525804E+01 0.91754556139E+01 0.91684108191E+01 0.91684106465E+01 0.91754551693E+01
 0.91868520604E+01 0.91956059222E+01 0.91746182131E+01 0.90827129995E+01 0.88810264639E+01
 0.85406129099E+01 0.80495842298E+01 0.74185569307E+01 0.66828156259E+01 0.58999448793E+01
 0.64901429741E+01 0.59242438459E+01 0.54658761537E+01 0.51675175490E+01 0.50640043953E+01
 0.51675169865E+01 0.54658751198E+01 0.59242425042E+01 0.64901415276E+01 0.71013085235E+01
 0.76952434681E+01 0.82186458135E+01 0.86347698959E+01 0.89272848734E+01 0.91002304648E+01
 0.91746187507E+01 0.91828005070E+01 0.91617621773E+01 0.91386556617E+01 0.91220666534E+01
 0.91160909184E+01 0.91220664349E+01 0.91386552527E+01 0.91617616338E+01 0.91827999129E+01
 0.91746182131E+01 0.91002301028E+01 0.89272848004E+01 0.86347701966E+01 0.82186465214E+01
 0.76952445491E+01 0.71013098712E+01 0.75796536632E+01 0.71300155784E+01 0.67346174063E+01
 0.64404778081E+01 0.62836521994E+01 0.62836517575E+01 0.64404766076E+01 0.67346157863E+01
 0.71300139929E+01 0.75796525509E+01 0.80329338420E+01 0.84435860786E+01 0.87765672657E+01
 0.90126461342E+01 0.91499289917E+01 0.92023326061E+01 0.91956069786E+01 0.91617622169E+01
 0.91257931317E+01 0.90971793953E+01 0.90814797244E+01 0.90814797350E+01 0.90971793673E+01
 0.91257929132E+01 0.91617616338E+01 0.91956059222E+01 0.92023311045E+01 0.91499272354E+01
 0.90126444437E+01 0.87765660066E+01 0.84435855508E+01 0.80329341789E+01 0.83915456099E+01
 0.80656410736E+01 0.77554359687E+01 0.74995190938E+01 0.73310226144E+01 0.72722395221E+01
 0.73310216865E+01 0.74995175731E+01 0.77554344175E+01 0.80656401014E+01 0.83915456796E+01
 0.86953591096E+01 0.89460806103E+01 0.91241343838E+01 0.92238260299E+01 0.92532892305E+01
 0.92320874879E+01 0.91868526118E+01 0.91386551090E+01 0.90971789239E+01 0.90693840567E+01
 0.90596271595E+01 0.90693844016E+01 0.90971793673E+01 0.91386552527E+01 0.91868520604E+01
 0.92320860107E+01 0.92532868708E+01 0.92238231230E+01 0.91241314730E+01 0.89460782865E+01
 0.86953578272E+01 0.89431754192E+01 0.87315413441E+01 0.85112315459E+01 0.83114147453E+01
 0.81598432734E+01 0.80781460996E+01 0.80781456944E+01 0.81598422349E+01 0.83114135431E+01
 0.85112307808E+01 0.87315415387E+01 0.89431768334E+01 0.91204480020E+01 0.92453627216E+01
 0.93104214258E+01 0.93195247855E+01 0.92868731491E+01 0.92335430803E+01 0.91754545461E+01
 0.91220653532E+01 0.90814787769E+01 0.90596267826E+01 0.90596271595E+01 0.90814797350E+01
 0.91220664349E+01 0.91754551693E+01 0.92335427438E+01 0.92868716145E+01 0.93195221726E+01
 0.93104181886E+01 0.92453595126E+01 0.91204454695E+01 0.92777866088E+01 0.91595260064E+01
 0.90200768263E+01 0.88796252492E+01 0.87596264777E+01 0.86789663592E+01 0.86505523518E+01
 0.86789659556E+01 0.87596259128E+01 0.88796249162E+01 0.90200771183E+01 0.91595271594E+01
 0.92777885943E+01 0.93595276004E+01 0.93969729611E+01 0.93912905852E+01 0.93523810127E+01
 0.92954717720E+01 0.92311353155E+01 0.91684090003E+01 0.91160893484E+01 0.90814787769E+01
 0.90693840567E+01 0.90814797244E+01 0.91160909184E+01 0.91684106465E+01 0.92311364449E+01
 0.92954719322E+01 0.93523800324E+01 0.93912886223E+01 0.93969704459E+01 0.93595250935E+01
 0.94524415620E+01 0.94009144794E+01 0.93245521245E+01 0.92358120128E+01 0.91500212265E+01
 0.90824272624E+01 0.90452414521E+01 0.90452414736E+01 0.90824273660E+01 0.91500215086E+01
 0.92358125752E+01 0.93245530103E+01 0.94009156236E+01 0.94524427782E+01 0.94719652910E+01
 0.94590870143E+01 0.94203907815E+01 0.93644906780E+01 0.92982203311E+01 0.92298802057E+01
 0.91684090003E+01 0.91220653532E+01 0.90971789239E+01 0.90971793953E+01 0.91220666534E+01
 0.91684108191E+01 0.92298821215E+01 0.92982219234E+01 0.93644916347E+01 0.94203909691E+01
 0.94590864938E+01 0.94719642774E+01 0.95273046240E+01 0.95150842349E+01 0.94802030259E+01
 0.94290166831E+01 0.93715278046E+01 0.93192743103E+01 0.92828993262E+01 0.92698785503E+01
 0.92828997943E+01 0.93192751288E+01 0.93715287654E+01 0.94290175357E+01 0.94802035327E+01
 0.95150842215E+01 0.95273040123E+01 0.95155811627E+01 0.94828201348E+01 0.94319685749E+01
 0.93680214776E+01 0.92982203311E+01 0.92311353155E+01 0.91754545461E+01 0.91386551090E+01
 0.91257931317E+01 0.91386556617E+01 0.91754556139E+01 0.92311368192E+01 0.92982221461E+01
 0.93680234354E+01 0.94319704746E+01 0.94828217674E+01 0.95155823450E+01 0.95562121560E+01
 0.95598606670E+01 0.95452177621E+01 0.95151087420E+01 0.94753376082E+01 0.94341603644E+01
 0.94004045695E+01 0.93814369886E+01 0.93814373660E+01 0.94004055629E+01 0.94341616014E+01
 0.94753385995E+01 0.95151090338E+01 0.95452170762E+01 0.95598589832E+01 0.95562097137E+01
 0.95326647478E+01 0.94900490493E+01 0.94319685749E+01 0.93644906780E+01 0.92954717720E+01
 0.92335430803E+01 0.91868526118E+01 0.91617622169E+01 0.91617621773E+01 0.91868525804E+01
 0.92335432832E+01 0.92954724791E+01 0.93644920845E+01 0.94319707006E+01 0.94900516952E+01
 0.95326675280E+01 0.95650095684E+01 0.95775280951E+01 0.95707048832E+01 0.95477265492E+01
 0.95140651292E+01 0.94765366412E+01 0.94423945700E+01 0.94185560336E+01 0.94100057344E+01
 0.94185567819E+01 0.94423957398E+01 0.94765376916E+01 0.95140654925E+01 0.95477258301E+01
 0.95707030012E+01 0.95775253240E+01 0.95650064565E+01 0.95326647478E+01 0.94828201348E+01
 0.94203907815E+01 0.93523810127E+01 0.92868731491E+01 0.92320874879E+01 0.91956069786E+01
 0.91828005070E+01 0.91956062584E+01 0.92320863700E+01 0.92868721666E+01 0.93523807228E+01
 0.94203915684E+01 0.94828220687E+01 0.95326675471E+01 0.95562118742E+01 0.95775278021E+01
 0.95785216425E+01 0.95610798083E+01 0.95297461758E+01 0.94911036990E+01 0.94527856207E+01
 0.94222181432E+01 0.94053012372E+01 0.94053015464E+01 0.94222189201E+01 0.94527864688E+01
 0.94911041245E+01 0.95297457761E+01 0.95610784347E+01 0.95785194777E+01 0.95775253240E+01
 0.95562097137E+01 0.95155811627E+01 0.94590870143E+01 0.93912905852E+01 0.93195247855E+01
 0.92532892305E+01 0.92023326061E+01 0.91746187507E+01 0.91746181238E+01 0.92023309247E+01
 0.92532870289E+01 0.93195227635E+01 0.93912893884E+01 0.94590870345E+01 0.95155824231E+01
 0.95273041928E+01 0.95598598886E+01 0.95707042026E+01 0.95610795000E+01 0.95344778237E+01
 0.94968791661E+01 0.94558443097E+01 0.94192979493E+01 0.93941865705E+01 0.93852547491E+01
 0.93941868743E+01 0.94192983841E+01 0.94558446022E+01 0.94968790586E+01 0.95344771935E+01
 0.95610784347E+01 0.95707030012E+01 0.95598589832E+01 0.95273040123E+01 0.94719652910E+01
 0.93969729611E+01 0.93104214258E+01 0.92238260299E+01 0.91499289917E+01 0.91002304648E+01
 0.90827123349E+01 0.91002291402E+01 0.91499266705E+01 0.92238232728E+01 0.93104188656E+01