   2   2   0   0
  0.7529258E+01  0.2200000E-09  0.2200000E-09  0.3592578E-09  0.5000000E-15
  1.000000000000000E-004
  CAR 
 Si beta-tin                             
     39.35759303     -2.06954274  301     20.99253905      1.00000000
     -2.070  0.0000E+00  0.0000E+00
     -1.931  0.0000E+00  0.0000E+00
     -1.793  0.0000E+00  0.0000E+00
     -1.655  0.0000E+00  0.0000E+00
     -1.517  0.0000E+00  0.0000E+00
     -1.379  0.0000E+00  0.0000E+00
     -1.241  0.0000E+00  0.0000E+00
     -1.103  0.0000E+00  0.0000E+00
     -0.965  0.0000E+00  0.0000E+00
     -0.827  0.0000E+00  0.0000E+00
     -0.689  0.1656E-14  0.2286E-15
     -0.551  0.3521E-09  0.4862E-10
     -0.412  0.1871E-05  0.2584E-06
     -0.274  0.2851E-03  0.3962E-04
     -0.136  0.1755E-02  0.2819E-03
      0.002  0.6301E-03  0.3689E-03
      0.140  0.1202E-04  0.3706E-03
      0.278  0.3370E-03  0.4171E-03
      0.416  0.3091E-02  0.8440E-03
      0.554  0.1868E-02  0.1102E-02
      0.692  0.6644E-04  0.1111E-02
      0.830  0.7996E-04  0.1122E-02
      0.968  0.1336E-02  0.1307E-02
      1.107  0.1209E-02  0.1473E-02
      1.245  0.6035E-04  0.1482E-02
      1.383  0.4829E-03  0.1549E-02
      1.521  0.3861E-02  0.2082E-02
      1.659  0.3225E-02  0.2527E-02
      1.797  0.4712E-03  0.2592E-02
      1.935  0.4492E-03  0.2654E-02
      2.073  0.4963E-02  0.3340E-02
      2.211  0.4791E-02  0.4001E-02
      2.349  0.5238E-03  0.4074E-02
      2.487  0.1127E-03  0.4089E-02
      2.626  0.1454E-02  0.4290E-02
      2.764  0.1078E-02  0.4439E-02
      2.902  0.4731E-04  0.4445E-02
      3.040  0.7536E-03  0.4549E-02
      3.178  0.4859E-02  0.5220E-02
      3.316  0.5502E-02  0.5980E-02
      3.454  0.2145E-02  0.6276E-02
      3.592  0.5519E-03  0.6353E-02
      3.730  0.4126E-02  0.6922E-02
      3.868  0.4424E-02  0.7533E-02
      4.006  0.1671E-02  0.7764E-02
      4.145  0.9975E-04  0.7778E-02
      4.283  0.2459E-06  0.7778E-02
      4.421  0.3103E-07  0.7778E-02
      4.559  0.4032E-04  0.7783E-02
      4.697  0.1763E-02  0.8027E-02
      4.835  0.5928E-02  0.8845E-02
      4.973  0.6135E-02  0.9693E-02
      5.111  0.2267E-02  0.1001E-01
      5.249  0.3516E-02  0.1049E-01
      5.387  0.6620E-02  0.1141E-01
      5.525  0.2691E-02  0.1178E-01
      5.664  0.2457E-02  0.1212E-01
      5.802  0.2658E-02  0.1248E-01
      5.940  0.3173E-02  0.1292E-01
      6.078  0.6685E-03  0.1301E-01
      6.216  0.2009E-02  0.1329E-01
      6.354  0.3024E-02  0.1371E-01
      6.492  0.5762E-02  0.1450E-01
      6.630  0.4421E-02  0.1511E-01
      6.768  0.1127E-02  0.1527E-01
      6.906  0.4952E-02  0.1595E-01
      7.044  0.4757E-02  0.1661E-01
      7.183  0.2471E-02  0.1695E-01
      7.321  0.3419E-02  0.1742E-01
      7.459  0.2053E-02  0.1771E-01
      7.597  0.6031E-03  0.1779E-01
      7.735  0.1616E-02  0.1801E-01
      7.873  0.4067E-02  0.1858E-01
      8.011  0.4819E-02  0.1924E-01
      8.149  0.4409E-02  0.1985E-01
      8.287  0.1809E-02  0.2010E-01
      8.425  0.5402E-02  0.2085E-01
      8.563  0.6056E-02  0.2168E-01
      8.702  0.5027E-02  0.2238E-01
      8.840  0.4691E-02  0.2302E-01
      8.978  0.2081E-02  0.2331E-01
      9.116  0.1546E-03  0.2333E-01
      9.254  0.1234E-03  0.2335E-01
      9.392  0.3597E-02  0.2385E-01
      9.530  0.7315E-02  0.2486E-01
      9.668  0.3566E-02  0.2535E-01
      9.806  0.2427E-02  0.2568E-01
      9.944  0.6750E-02  0.2662E-01
     10.082  0.4927E-02  0.2730E-01
     10.221  0.6883E-02  0.2825E-01
     10.359  0.5280E-02  0.2898E-01
     10.497  0.1972E-02  0.2925E-01
     10.635  0.2659E-02  0.2962E-01
     10.773  0.7606E-02  0.3067E-01
     10.911  0.8595E-02  0.3185E-01
     11.049  0.6432E-02  0.3274E-01
     11.187  0.3781E-02  0.3326E-01
     11.325  0.5873E-02  0.3408E-01
     11.463  0.7037E-02  0.3505E-01
     11.601  0.9964E-03  0.3518E-01
     11.740  0.6152E-05  0.3519E-01
     11.878  0.4363E-04  0.3519E-01
     12.016  0.1478E-02  0.3540E-01
     12.154  0.5665E-02  0.3618E-01
     12.292  0.6353E-02  0.3705E-01
     12.430  0.4529E-02  0.3768E-01
     12.568  0.3306E-02  0.3814E-01
     12.706  0.4814E-02  0.3880E-01
     12.844  0.4846E-02  0.3947E-01
     12.982  0.3959E-02  0.4002E-01
     13.120  0.2444E-02  0.4035E-01
     13.258  0.6883E-03  0.4045E-01
     13.397  0.4281E-02  0.4104E-01
     13.535  0.4863E-02  0.4171E-01
     13.673  0.1532E-02  0.4192E-01
     13.811  0.3905E-02  0.4246E-01
     13.949  0.6778E-02  0.4340E-01
     14.087  0.4799E-02  0.4406E-01
     14.225  0.1855E-02  0.4432E-01
     14.363  0.9947E-03  0.4446E-01
     14.501  0.3148E-02  0.4489E-01
     14.639  0.1178E-01  0.4652E-01
     14.777  0.1361E-01  0.4840E-01
     14.916  0.3409E-02  0.4887E-01
     15.054  0.3221E-02  0.4931E-01
     15.192  0.2310E-02  0.4963E-01
     15.330  0.2390E-02  0.4996E-01
     15.468  0.5169E-02  0.5067E-01
     15.606  0.1058E-01  0.5214E-01
     15.744  0.5164E-02  0.5285E-01
     15.882  0.3033E-02  0.5327E-01
     16.020  0.1015E-02  0.5341E-01
     16.158  0.4735E-02  0.5406E-01
     16.296  0.8547E-02  0.5524E-01
     16.435  0.6509E-02  0.5614E-01
     16.573  0.6682E-02  0.5706E-01
     16.711  0.4228E-02  0.5765E-01
     16.849  0.9453E-03  0.5778E-01
     16.987  0.1294E-02  0.5796E-01
     17.125  0.6908E-02  0.5891E-01
     17.263  0.2967E-02  0.5932E-01
     17.401  0.5038E-02  0.6002E-01
     17.539  0.5209E-02  0.6074E-01
     17.677  0.2747E-02  0.6111E-01
     17.815  0.5365E-02  0.6186E-01
     17.954  0.8323E-02  0.6300E-01
     18.092  0.1138E-01  0.6458E-01
     18.230  0.6364E-02  0.6545E-01
     18.368  0.7436E-03  0.6556E-01
     18.506  0.9249E-03  0.6569E-01
     18.644  0.4882E-02  0.6636E-01
     18.782  0.6750E-02  0.6729E-01
     18.920  0.1681E-02  0.6752E-01
     19.058  0.7262E-02  0.6853E-01
     19.196  0.4904E-02  0.6920E-01
     19.334  0.4802E-03  0.6927E-01
     19.473  0.3057E-02  0.6969E-01
     19.611  0.9243E-02  0.7097E-01
     19.749  0.4646E-02  0.7161E-01
     19.887  0.7009E-02  0.7258E-01
     20.025  0.1276E-01  0.7434E-01
     20.163  0.8258E-02  0.7548E-01
     20.301  0.4705E-02  0.7613E-01
     20.439  0.7252E-02  0.7713E-01
     20.577  0.4568E-02  0.7776E-01
     20.715  0.2945E-02  0.7817E-01
     20.853  0.7544E-02  0.7921E-01
     20.992  0.5681E-02  0.8000E-01
     21.130  0.4748E-02  0.8065E-01
     21.268  0.5802E-02  0.8145E-01
     21.406  0.1039E-01  0.8289E-01
     21.544  0.6867E-02  0.8383E-01
     21.682  0.3903E-02  0.8437E-01
     21.820  0.5088E-02  0.8508E-01
     21.958  0.1163E-01  0.8668E-01
     22.096  0.7990E-02  0.8779E-01
     22.234  0.4794E-02  0.8845E-01
     22.372  0.4834E-02  0.8912E-01
     22.511  0.2016E-02  0.8939E-01
     22.649  0.1576E-02  0.8961E-01
     22.787  0.7691E-03  0.8972E-01
     22.925  0.1770E-02  0.8996E-01
     23.063  0.1487E-02  0.9017E-01
     23.201  0.5294E-02  0.9090E-01
     23.339  0.1525E-02  0.9111E-01
     23.477  0.1072E-02  0.9126E-01
     23.615  0.9227E-02  0.9253E-01
     23.753  0.7962E-02  0.9363E-01
     23.891  0.3303E-02  0.9409E-01
     24.030  0.5193E-02  0.9480E-01
     24.168  0.6970E-02  0.9577E-01
     24.306  0.6198E-02  0.9662E-01
     24.444  0.4904E-02  0.9730E-01
     24.582  0.1327E-01  0.9913E-01
     24.720  0.1618E-01  0.1014E+00
     24.858  0.3946E-02  0.1019E+00
     24.996  0.2359E-02  0.1022E+00
     25.134  0.2307E-02  0.1026E+00
     25.272  0.1854E-02  0.1028E+00
     25.410  0.2025E-02  0.1031E+00
     25.549  0.6522E-02  0.1040E+00
     25.687  0.6827E-02  0.1049E+00
     25.825  0.5662E-02  0.1057E+00
     25.963  0.4880E-02  0.1064E+00
     26.101  0.6355E-02  0.1073E+00
     26.239  0.8113E-02  0.1084E+00
     26.377  0.6491E-02  0.1093E+00
     26.515  0.4487E-02  0.1099E+00
     26.653  0.7677E-02  0.1110E+00
     26.791  0.1861E-01  0.1135E+00
     26.929  0.1091E-01  0.1150E+00
     27.068  0.3433E-02  0.1155E+00
     27.206  0.1871E-02  0.1158E+00
     27.344  0.4497E-02  0.1164E+00
     27.482  0.3992E-02  0.1169E+00
     27.620  0.6657E-03  0.1170E+00
     27.758  0.1631E-03  0.1171E+00
     27.896  0.3368E-02  0.1175E+00
     28.034  0.6961E-02  0.1185E+00
     28.172  0.1346E-01  0.1203E+00
     28.310  0.7665E-02  0.1214E+00
     28.448  0.1810E-02  0.1217E+00
     28.587  0.9592E-02  0.1230E+00
     28.725  0.5130E-02  0.1237E+00
     28.863  0.2045E-02  0.1240E+00
     29.001  0.4513E-02  0.1246E+00
     29.139  0.4392E-02  0.1252E+00
     29.277  0.8073E-02  0.1263E+00
     29.415  0.1107E-01  0.1278E+00
     29.553  0.7630E-02  0.1289E+00
     29.691  0.5371E-02  0.1296E+00
     29.829  0.6937E-02  0.1306E+00
     29.967  0.1083E-02  0.1307E+00
     30.106  0.2717E-02  0.1311E+00
     30.244  0.1758E-01  0.1335E+00
     30.382  0.1408E-01  0.1355E+00
     30.520  0.6140E-02  0.1363E+00
     30.658  0.5669E-02  0.1371E+00
     30.796  0.6258E-02  0.1380E+00
     30.934  0.5601E-02  0.1388E+00
     31.072  0.8824E-02  0.1400E+00
     31.210  0.1078E-01  0.1415E+00
     31.348  0.9392E-02  0.1428E+00
     31.486  0.5828E-02  0.1436E+00
     31.625  0.3533E-02  0.1441E+00
     31.763  0.4880E-02  0.1447E+00
     31.901  0.1211E-02  0.1449E+00
     32.039  0.1922E-02  0.1452E+00
     32.177  0.3731E-02  0.1457E+00
     32.315  0.4370E-02  0.1463E+00
     32.453  0.3945E-02  0.1468E+00
     32.591  0.7665E-02  0.1479E+00
     32.729  0.1886E-02  0.1481E+00
     32.867  0.3325E-03  0.1482E+00
     33.005  0.3227E-02  0.1486E+00
     33.144  0.6216E-02  0.1495E+00
     33.282  0.1574E-01  0.1517E+00
     33.420  0.1425E-01  0.1536E+00
     33.558  0.3530E-02  0.1541E+00
     33.696  0.1858E-02  0.1544E+00
     33.834  0.1082E-02  0.1545E+00
     33.972  0.2338E-02  0.1549E+00
     34.110  0.3835E-02  0.1554E+00
     34.248  0.3509E-02  0.1559E+00
     34.386  0.1947E-02  0.1561E+00
     34.524  0.1126E-02  0.1563E+00
     34.663  0.4325E-03  0.1564E+00
     34.801  0.1840E-02  0.1566E+00
     34.939  0.2315E-02  0.1569E+00
     35.077  0.5124E-02  0.1576E+00
     35.215  0.2441E-02  0.1580E+00
     35.353  0.4842E-02  0.1586E+00
     35.491  0.1779E-02  0.1589E+00
     35.629  0.4369E-04  0.1589E+00
     35.767  0.1162E-03  0.1589E+00
     35.905  0.1480E-02  0.1591E+00
     36.043  0.1048E-02  0.1593E+00
     36.182  0.3787E-04  0.1593E+00
     36.320  0.4623E-06  0.1593E+00
     36.458  0.1314E-03  0.1593E+00
     36.596  0.1525E-02  0.1595E+00
     36.734  0.9924E-03  0.1596E+00
     36.872  0.3252E-04  0.1596E+00
     37.010  0.3492E-07  0.1596E+00
     37.148  0.5249E-08  0.1596E+00
     37.286  0.1038E-04  0.1596E+00
     37.424  0.6301E-03  0.1597E+00
     37.562  0.1755E-02  0.1600E+00
     37.701  0.2851E-03  0.1600E+00
     37.839  0.1871E-05  0.1600E+00
     37.977  0.3521E-09  0.1600E+00
     38.115  0.1656E-14  0.1600E+00
     38.253  0.0000E+00  0.1600E+00
     38.391  0.0000E+00  0.1600E+00
     38.529  0.0000E+00  0.1600E+00
     38.667  0.0000E+00  0.1600E+00
     38.805  0.0000E+00  0.1600E+00
     38.943  0.0000E+00  0.1600E+00
     39.081  0.0000E+00  0.1600E+00
     39.220  0.0000E+00  0.1600E+00
     39.358  0.0000E+00  0.1600E+00
