    2    2  100    1
  0.7529258E+01  0.2200000E-09  0.2200000E-09  0.3592578E-09  0.5000000E-15
  1.000000000000000E-004
  CAR 
 Si beta-tin                             
      8     36      8
 
  0.8333333E-01  0.8333333E-01  0.8333333E-01  0.1851852E-01
    1        0.371010   1.000000
    2        8.865747   1.000000
    3       12.523433   1.000000
    4       27.892330   0.000000
    5       29.213257   0.000000
    6       34.737158   0.000000
    7       35.238737   0.000000
    8       35.888320   0.000000
 
  0.2500000E+00  0.8333333E-01  0.8333333E-01  0.3703704E-01
    1        3.116874   1.000000
    2       11.375704   1.000000
    3       14.691327   1.000000
    4       19.543424   1.000000
    5       24.685037   0.000000
    6       27.400337   0.000000
    7       30.574779   0.000000
    8       33.239855   0.000000
 
  0.4166667E+00  0.8333333E-01  0.8333333E-01  0.3703704E-01
    1        7.865766   1.000000
    2       10.888483   1.000000
    3       16.184002   1.000000
    4       19.025775   1.000000
    5       19.606863   1.000000
    6       21.891891   0.000000
    7       26.783241   0.000000
    8       31.672181   0.000000
 
 -0.4166667E+00  0.8333333E-01  0.8333333E-01  0.3703704E-01
    1        5.262616   1.000000
    2       12.977440   1.000000
    3       14.664105   1.000000
    4       17.867211   1.000000
    5       22.182368   0.000000
    6       24.257655   0.000000
    7       28.113812   0.000000
    8       32.190676   0.000000
 
 -0.2500000E+00  0.8333333E-01  0.8333333E-01  0.3703704E-01
    1        1.477673   1.000000
    2        9.882667   1.000000
    3       13.471194   1.000000
    4       23.633444   0.000000
    5       26.704844   0.000000
    6       31.392646   0.000000
    7       33.360617   0.000000
    8       35.012316   0.000000
 
 -0.8333333E-01  0.8333333E-01  0.8333333E-01  0.1851852E-01
    1       -0.186491   1.000000
    2        8.353487   1.000000
    3       12.030411   1.000000
    4       30.679993   0.000000
    5       32.987436   0.000000
    6       33.886674   0.000000
    7       35.330836   0.000000
    8       37.474541   0.000000
 
  0.2500000E+00  0.2500000E+00  0.8333333E-01  0.1851852E-01
    1        6.841796   1.000000
    2       14.196090   1.000000
    3       15.811750   1.000000
    4       16.262283   1.000000
    5       20.190695   1.000000
    6       24.328060   0.000000
    7       25.256818   0.000000
    8       28.604012   0.000000
 
  0.4166667E+00  0.2500000E+00  0.8333333E-01  0.3703704E-01
    1        9.400251   1.000000
    2       12.364775   1.000000
    3       15.040971   1.000000
    4       17.989272   1.000000
    5       20.349669   1.000000
    6       21.961050   0.000000
    7       24.597505   0.000000
    8       26.718146   0.000000
 
 -0.4166667E+00  0.2500000E+00  0.8333333E-01  0.3703704E-01
    1        4.730827   1.000000
    2       12.794501   1.000000
    3       15.550990   1.000000
    4       18.075627   1.000000
    5       21.241703   0.000213
    6       25.736235   0.000000
    7       28.546499   0.000000
    8       30.202402   0.000000
 
 -0.2500000E+00  0.2500000E+00  0.8333333E-01  0.1851852E-01
    1        2.026849   1.000000
    2       10.385142   1.000000
    3       13.905926   1.000000
    4       21.408709   0.000000
    5       27.935826   0.000000
    6       29.744331   0.000000
    7       30.264820   0.000000
    8       34.956797   0.000000
 
  0.4166667E+00  0.4166667E+00  0.8333333E-01  0.1851852E-01
    1        9.669222   1.000000
    2       10.159756   1.000000
    3       17.343641   1.000000
    4       18.160712   1.000000
    5       19.114511   1.000000
    6       21.384476   0.000000
    7       25.874802   0.000000
    8       27.897393   0.000000
 
 -0.4166667E+00  0.4166667E+00  0.8333333E-01  0.1851852E-01
    1        6.315973   1.000000
    2       12.159686   1.000000
    3       14.836911   1.000000
    4       18.539321   1.000000
    5       20.676919   0.999996
    6       23.693789   0.000000
    7       28.104353   0.000000
    8       32.517310   0.000000
 
  0.8333333E-01  0.8333333E-01  0.2500000E+00  0.1851852E-01
    1        0.963512   1.000000
    2        6.155163   1.000000
    3       16.197405   1.000000
    4       28.075965   0.000000
    5       29.510629   0.000000
    6       30.320591   0.000000
    7       33.630832   0.000000
    8       34.374512   0.000000
 
  0.2500000E+00  0.8333333E-01  0.2500000E+00  0.3703704E-01
    1        3.694937   1.000000
    2        8.746714   1.000000
    3       17.765746   1.000000
    4       20.466810   1.000000
    5       23.561958   0.000000
    6       26.875294   0.000000
    7       30.274481   0.000000
    8       33.290814   0.000000
 
  0.4166667E+00  0.8333333E-01  0.2500000E+00  0.3703704E-01
    1        8.403689   1.000000
    2       11.203463   1.000000
    3       13.960822   1.000000
    4       16.644813   1.000000
    5       22.311944   0.000000
    6       24.596148   0.000000
    7       28.159991   0.000000
    8       29.726704   0.000000
 
 -0.4166667E+00  0.8333333E-01  0.2500000E+00  0.3703704E-01
    1        5.827786   1.000000
    2       10.691316   1.000000
    3       15.340312   1.000000
    4       19.923218   1.000000
    5       20.811336   0.994805
    6       25.522197   0.000000
    7       29.301531   0.000000
    8       30.987389   0.000000
 
 -0.2500000E+00  0.8333333E-01  0.2500000E+00  0.3703704E-01
    1        2.064441   1.000000
    2        7.203066   1.000000
    3       17.058654   1.000000
    4       24.106128   0.000000
    5       26.720844   0.000000
    6       29.047535   0.000000
    7       31.232119   0.000000
    8       33.354507   0.000000
 
 -0.8333333E-01  0.8333333E-01  0.2500000E+00  0.1851852E-01
    1        0.408877   1.000000
    2        5.626662   1.000000
    3       15.735942   1.000000
    4       29.341557   0.000000
    5       31.632822   0.000000
    6       33.391093   0.000000
    7       34.105941   0.000000
    8       36.574583   0.000000
 
  0.2500000E+00  0.2500000E+00  0.2500000E+00  0.1851852E-01
    1        7.396095   1.000000
    2       12.098136   1.000000
    3       16.281158   1.000000
    4       17.069214   1.000000
    5       20.849379   0.978545
    6       22.534342   0.000000
    7       25.058378   0.000000
    8       31.954820   0.000000
 
  0.4166667E+00  0.2500000E+00  0.2500000E+00  0.3703704E-01
    1        9.924000   1.000000
    2       12.651819   1.000000
    3       14.672721   1.000000
    4       16.481659   1.000000
    5       19.015596   1.000000
    6       21.509964   0.000000
    7       26.278323   0.000000
    8       29.522820   0.000000
 
 -0.4166667E+00  0.2500000E+00  0.2500000E+00  0.3703704E-01
    1        5.299705   1.000000
    2       10.245297   1.000000
    3       17.430360   1.000000
    4       19.490928   1.000000
    5       21.332925   0.000001
    6       24.493349   0.000000
    7       26.691412   0.000000
    8       33.169066   0.000000
 
 -0.2500000E+00  0.2500000E+00  0.2500000E+00  0.1851852E-01
    1        2.610754   1.000000
    2        7.721582   1.000000
    3       17.388858   1.000000
    4       22.014107   0.000000
    5       25.842574   0.000000
    6       30.193038   0.000000
    7       30.292011   0.000000
    8       34.035968   0.000000
 
  0.4166667E+00  0.4166667E+00  0.2500000E+00  0.1851852E-01
    1       10.170766   1.000000
    2       10.635280   1.000000
    3       15.565610   1.000000
    4       15.579270   1.000000
    5       20.117632   1.000000
    6       23.839167   0.000000
    7       26.983581   0.000000
    8       28.080225   0.000000
 
 -0.4166667E+00  0.4166667E+00  0.2500000E+00  0.1851852E-01
    1        6.872355   1.000000
    2       11.375233   1.000000
    3       13.773900   1.000000
    4       18.128797   1.000000
    5       21.852478   0.000000
    6       26.597961   0.000000
    7       28.550376   0.000000
    8       32.547794   0.000000
 
  0.8333333E-01  0.8333333E-01  0.4166667E+00  0.1851852E-01
    1        2.139267   1.000000
    2        3.879994   1.000000
    3       20.388220   1.000000
    4       24.923316   0.000000
    5       29.313205   0.000000
    6       29.751654   0.000000
    7       32.543895   0.000000
    8       32.972381   0.000000
 
  0.2500000E+00  0.8333333E-01  0.4166667E+00  0.3703704E-01
    1        4.841573   1.000000
    2        6.536963   1.000000
    3       20.012328   1.000000
    4       21.698774   0.000000
    5       23.148881   0.000000
    6       26.225281   0.000000
    7       28.889729   0.000000
    8       30.451113   0.000000
 
  0.4166667E+00  0.8333333E-01  0.4166667E+00  0.3703704E-01
    1        9.443193   1.000000
    2       10.777639   1.000000
    3       13.346704   1.000000
    4       14.644376   1.000000
    5       24.531688   0.000000
    6       26.025461   0.000000
    7       29.276705   0.000000
    8       31.169948   0.000000
 
 -0.4166667E+00  0.8333333E-01  0.4166667E+00  0.3703704E-01
    1        6.946222   1.000000
    2        8.589784   1.000000
    3       16.426158   1.000000
    4       17.987045   1.000000
    5       23.970499   0.000000
    6       26.117190   0.000000
    7       28.537788   0.000000
    8       31.015784   0.000000
 
 -0.2500000E+00  0.8333333E-01  0.4166667E+00  0.3703704E-01
    1        3.228754   1.000000
    2        4.952064   1.000000
    3       21.064489   0.154452
    4       24.665757   0.000000
    5       25.586794   0.000000
    6       26.456707   0.000000
    7       30.172143   0.000000
    8       31.226614   0.000000
 
 -0.8333333E-01  0.8333333E-01  0.4166667E+00  0.1851852E-01
    1        1.590399   1.000000
    2        3.339709   1.000000
    3       19.976233   1.000000
    4       24.619900   0.000000
    5       32.179770   0.000000
    6       33.168309   0.000000
    7       34.182205   0.000000
    8       35.305116   0.000000
 
  0.2500000E+00  0.2500000E+00  0.4166667E+00  0.1851852E-01
    1        8.490291   1.000000
    2       10.087940   1.000000
    3       17.103487   1.000000
    4       17.620202   1.000000
    5       20.117408   1.000000
    6       20.789920   0.997918
    7       28.212491   0.000000
    8       32.441292   0.000000
 
  0.4166667E+00  0.2500000E+00  0.4166667E+00  0.3703704E-01
    1       10.929489   1.000000
    2       12.205305   1.000000
    3       14.512225   1.000000
    4       15.514458   1.000000
    5       18.694643   1.000000
    6       19.811552   1.000000
    7       30.209366   0.000000
    8       33.208333   0.000000
 
 -0.4166667E+00  0.2500000E+00  0.4166667E+00  0.3703704E-01
    1        6.426992   1.000000
    2        8.089719   1.000000
    3       18.665089   1.000000
    4       19.939030   1.000000
    5       21.933288   0.000000
    6       23.582887   0.000000
    7       27.244803   0.000000
    8       30.791611   0.000000
 
 -0.2500000E+00  0.2500000E+00  0.4166667E+00  0.1851852E-01
    1        3.769249   1.000000
    2        5.483554   1.000000
    3       20.950356   0.724598
    4       23.115528   0.000000
    5       24.121316   0.000000
    6       26.847914   0.000000
    7       31.094610   0.000000
    8       32.454646   0.000000
 
  0.4166667E+00  0.4166667E+00  0.4166667E+00  0.1851852E-01
    1       11.051103   1.000000
    2       11.348220   1.000000
    3       13.754885   1.000000
    4       13.932414   1.000000
    5       21.325261   0.000001
    6       22.837186   0.000000
    7       30.160547   0.000000
    8       31.429441   0.000000
 
 -0.4166667E+00  0.4166667E+00  0.4166667E+00  0.1851852E-01
    1        7.968524   1.000000
    2        9.552454   1.000000
    3       14.551368   1.000000
    4       16.086128   1.000000
    5       25.462026   0.000000
    6       28.216718   0.000000
    7       29.444615   0.000000
    8       30.786255   0.000000
