 vasp.5.4.1 24Jun15 (build Jul 19 2016 16:50:41) complex                        
  
 executed on           IFC91_ompi date 2019.10.10  11:10:02
 running on    4 total cores
 distrk:  each k-point on    4 cores,    1 groups
 distr:  one band on NCORES_PER_BAND=   1 cores,    4 groups


--------------------------------------------------------------------------------------------------------


 INCAR:
 POTCAR:    PAW_PBE Si 05Jan2001                  
 POTCAR:    PAW_PBE Si 05Jan2001                  
   VRHFIN = Si: s2p2                                                            
   LEXCH  = PE                                                                  
   EATOM  =   103.0669 eV,    7.5752 Ry                                         
                                                                                
   TITEL  = PAW_PBE Si 05Jan2001                                                
   LULTRA =        F    use ultrasoft PP ?                                      
   IUNSCR =        1    unscreen: 0-lin 1-nonlin 2-no                           
   RPACOR =    1.500    partial core radius                                     
   POMASS =   28.085; ZVAL   =    4.000    mass and valenz                      
   RCORE  =    1.900    outmost cutoff radius                                   
   RWIGS  =    2.480; RWIGS  =    1.312    wigner-seitz radius (au A)           
   ENMAX  =  245.345; ENMIN  =  184.009 eV                                      
   ICORE  =        2    local potential                                         
   LCOR   =        T    correct aug charges                                     
   LPAW   =        T    paw PP                                                  
   EAUG   =  322.069                                                            
   DEXC   =    0.000                                                            
   RMAX   =    1.950    core radius for proj-oper                               
   RAUG   =    1.300    factor for augmentation sphere                          
   RDEP   =    1.993    radius for radial grids                                 
   RDEPT  =    1.837    core radius for aug-charge                              
                                                                                
   Atomic configuration                                                         
    6 entries                                                                   
     n  l   j            E        occ.                                          
     1  0  0.50     -1785.8828   2.0000                                         
     2  0  0.50      -139.4969   2.0000                                         
     2  1  1.50       -95.5546   6.0000                                         
     3  0  0.50       -10.8127   2.0000                                         
     3  1  0.50        -4.0811   2.0000                                         
     3  2  1.50        -4.0817   0.0000                                         
   Description                                                                  
     l       E           TYP  RCUT    TYP  RCUT                                 
     0    -10.8127223     23  1.900                                             
     0     -7.6451159     23  1.900                                             
     1     -4.0811372     23  1.900                                             
     1      2.4879257     23  1.900                                             
     2     -4.0817478      7  1.900                                             
  local pseudopotential read in
  partial core-charges read in
  partial kinetic energy density read in
  atomic valenz-charges read in
  non local Contribution for L=           0  read in
    real space projection operators read in
  non local Contribution for L=           0  read in
    real space projection operators read in
  non local Contribution for L=           1  read in
    real space projection operators read in
  non local Contribution for L=           1  read in
    real space projection operators read in
    PAW grid and wavefunctions read in
 
   number of l-projection  operators is LMAX  =           4
   number of lm-projection operators is LMMAX =           8
 
  PAW_PBE Si 05Jan2001                  :
 energy of atom  1       EATOM= -103.0669
 kinetic energy error for atom=    0.0009 (will be added to EATOM!!)
 
 
 POSCAR: Si HCP                                  
  positions in direct lattice
  No initial velocities read in
 exchange correlation table for  LEXCH =        8
   RHO(1)=    0.500       N(1)  =     2000
   RHO(2)=  100.500       N(2)  =     4000
 


--------------------------------------------------------------------------------------------------------


 ion  position               nearest neighbor table
   1  0.000  0.000  0.000-   2 2.20   2 2.20   2 2.20   2 2.20   2 2.20   2 2.20   2 3.11   2 3.11
                             2 3.11   2 3.11   2 3.11   2 3.11
   2  0.333  0.667  0.500-   1 2.20   1 2.20   1 2.20   1 2.20   1 2.20   1 2.20   1 3.11   1 3.11
                             1 3.11   1 3.11   1 3.11   1 3.11
 
  LATTYP: Found a hexagonal cell.
 ALAT       =     2.2000000000
 C/A-ratio  =     1.6329900000
  
  Lattice vectors:
  
 A1 = (   2.2000000000,   0.0000000000,   0.0000000000)
 A2 = (  -1.1000000000,   1.9052558883,   0.0000000000)
 A3 = (   0.0000000000,   0.0000000000,   3.5925780000)


Analysis of symmetry for initial positions (statically):
=====================================================================
 Subroutine PRICEL returns:
 Original cell was already a primitive cell.
 

 Routine SETGRP: Setting up the symmetry group for a 
 hexagonal supercell.


 Subroutine GETGRP returns: Found 24 space group operations
 (whereof 12 operations were pure point group operations)
 out of a pool of 24 trial point group operations.


The static configuration has the point symmetry D_3h.
 The point group associated with its full space group is D_6h.


Analysis of symmetry for dynamics (positions and initial velocities):
=====================================================================
 Subroutine PRICEL returns:
 Original cell was already a primitive cell.
 

 Routine SETGRP: Setting up the symmetry group for a 
 hexagonal supercell.


 Subroutine GETGRP returns: Found 24 space group operations
 (whereof 12 operations were pure point group operations)
 out of a pool of 24 trial point group operations.


The dynamic configuration has the point symmetry D_3h.
 The point group associated with its full space group is D_6h.


 Subroutine INISYM returns: Found 24 space group operations
 (whereof 12 operations are pure point group operations),
 and found     1 'primitive' translations

 
 
 KPOINTS: K-Points                                

Automatic generation of k-mesh.
Space group operators:
 irot       det(A)        alpha          n_x          n_y          n_z        tau_x        tau_y        tau_z
    1     1.000000     0.000000     1.000000     0.000000     0.000000     0.000000     0.000000     0.000000
    2    -1.000000    60.000000     0.000000     0.000000    -1.000000     0.000000     0.000000     0.000000
    3     1.000000   120.000000     0.000000     0.000000    -1.000000     0.000000     0.000000     0.000000
    4    -1.000000   180.000000     0.000000     0.000000     1.000000     0.000000     0.000000     0.000000
    5     1.000000   120.000000     0.000000     0.000000     1.000000     0.000000     0.000000     0.000000
    6    -1.000000    60.000000     0.000000     0.000000     1.000000     0.000000     0.000000     0.000000
    7    -1.000000   180.000000     1.000000     0.000000     0.000000     0.000000     0.000000     0.000000
    8     1.000000   180.000000     0.866025    -0.500000     0.000000     0.000000     0.000000     0.000000
    9    -1.000000   180.000000     0.500000    -0.866025     0.000000     0.000000     0.000000     0.000000
   10     1.000000   180.000000     0.000000     1.000000     0.000000     0.000000     0.000000     0.000000
   11    -1.000000   180.000000    -0.500000    -0.866025     0.000000     0.000000     0.000000     0.000000
   12     1.000000   180.000000     0.866025     0.500000     0.000000     0.000000     0.000000     0.000000
   13    -1.000000     0.000000     1.000000     0.000000     0.000000     0.333333     0.666667     0.500000
   14     1.000000    60.000000     0.000000     0.000000    -1.000000     0.333333     0.666667     0.500000
   15    -1.000000   120.000000     0.000000     0.000000    -1.000000     0.333333     0.666667     0.500000
   16     1.000000   180.000000     0.000000     0.000000     1.000000     0.333333     0.666667     0.500000
   17    -1.000000   120.000000     0.000000     0.000000     1.000000     0.333333     0.666667     0.500000
   18     1.000000    60.000000     0.000000     0.000000     1.000000     0.333333     0.666667     0.500000
   19     1.000000   180.000000     1.000000     0.000000     0.000000     0.333333     0.666667     0.500000
   20    -1.000000   180.000000     0.866025    -0.500000     0.000000     0.333333     0.666667     0.500000
   21     1.000000   180.000000     0.500000    -0.866025     0.000000     0.333333     0.666667     0.500000
   22    -1.000000   180.000000     0.000000     1.000000     0.000000     0.333333     0.666667     0.500000
   23     1.000000   180.000000    -0.500000    -0.866025     0.000000     0.333333     0.666667     0.500000
   24    -1.000000   180.000000     0.866025     0.500000     0.000000     0.333333     0.666667     0.500000
 
 Subroutine IBZKPT returns following result:
 ===========================================
 
 Found     36 irreducible k-points:
 
 Following reciprocal coordinates:
            Coordinates               Weight
  0.083333  0.083333  0.083333     96.000000
  0.250000  0.083333  0.083333    192.000000
  0.416667  0.083333  0.083333    192.000000
 -0.416667  0.083333  0.083333    192.000000
 -0.250000  0.083333  0.083333    192.000000
 -0.083333  0.083333  0.083333     96.000000
  0.250000  0.250000  0.083333     96.000000
  0.416667  0.250000  0.083333    192.000000
 -0.416667  0.250000  0.083333    192.000000
 -0.250000  0.250000  0.083333     96.000000
  0.416667  0.416667  0.083333     96.000000
 -0.416667  0.416667  0.083333     96.000000
  0.083333  0.083333  0.250000     96.000000
  0.250000  0.083333  0.250000    192.000000
  0.416667  0.083333  0.250000    192.000000
 -0.416667  0.083333  0.250000    192.000000
 -0.250000  0.083333  0.250000    192.000000
 -0.083333  0.083333  0.250000     96.000000
  0.250000  0.250000  0.250000     96.000000
  0.416667  0.250000  0.250000    192.000000
 -0.416667  0.250000  0.250000    192.000000
 -0.250000  0.250000  0.250000     96.000000
  0.416667  0.416667  0.250000     96.000000
 -0.416667  0.416667  0.250000     96.000000
  0.083333  0.083333  0.416667     96.000000
  0.250000  0.083333  0.416667    192.000000
  0.416667  0.083333  0.416667    192.000000
 -0.416667  0.083333  0.416667    192.000000
 -0.250000  0.083333  0.416667    192.000000
 -0.083333  0.083333  0.416667     96.000000
  0.250000  0.250000  0.416667     96.000000
  0.416667  0.250000  0.416667    192.000000
 -0.416667  0.250000  0.416667    192.000000
 -0.250000  0.250000  0.416667     96.000000
  0.416667  0.416667  0.416667     96.000000
 -0.416667  0.416667  0.416667     96.000000
 
 Following cartesian coordinates:
            Coordinates               Weight
  0.083333  0.144338  0.051031     96.000000
  0.250000  0.240563  0.051031    192.000000
  0.416667  0.336788  0.051031    192.000000
 -0.416667 -0.144338  0.051031    192.000000
 -0.250000 -0.048113  0.051031    192.000000
 -0.083333  0.048113  0.051031     96.000000
  0.250000  0.433013  0.051031     96.000000
  0.416667  0.529238  0.051031    192.000000
 -0.416667  0.048113  0.051031    192.000000
 -0.250000  0.144338  0.051031     96.000000
  0.416667  0.721688  0.051031     96.000000
 -0.416667  0.240563  0.051031     96.000000
  0.083333  0.144338  0.153093     96.000000
  0.250000  0.240563  0.153093    192.000000
  0.416667  0.336788  0.153093    192.000000
 -0.416667 -0.144338  0.153093    192.000000
 -0.250000 -0.048113  0.153093    192.000000
 -0.083333  0.048113  0.153093     96.000000
  0.250000  0.433013  0.153093     96.000000
  0.416667  0.529238  0.153093    192.000000
 -0.416667  0.048113  0.153093    192.000000
 -0.250000  0.144338  0.153093     96.000000
  0.416667  0.721688  0.153093     96.000000
 -0.416667  0.240563  0.153093     96.000000
  0.083333  0.144338  0.255156     96.000000
  0.250000  0.240563  0.255156    192.000000
  0.416667  0.336788  0.255156    192.000000
 -0.416667 -0.144338  0.255156    192.000000
 -0.250000 -0.048113  0.255156    192.000000
 -0.083333  0.048113  0.255156     96.000000
  0.250000  0.433013  0.255156     96.000000
  0.416667  0.529238  0.255156    192.000000
 -0.416667  0.048113  0.255156    192.000000
 -0.250000  0.144338  0.255156     96.000000
  0.416667  0.721688  0.255156     96.000000
 -0.416667  0.240563  0.255156     96.000000
 


--------------------------------------------------------------------------------------------------------




 Dimension of arrays:
   k-points           NKPTS =     36   k-points in BZ     NKDIM =     36   number of bands    NBANDS=      8
   number of dos      NEDOS =    301   number of ions     NIONS =      2
   non local maximal  LDIM  =      4   non local SUM 2l+1 LMDIM =      8
   total plane-waves  NPLWV =   7168
   max r-space proj   IRMAX =      1   max aug-charges    IRDMAX=  16113
   dimension x,y,z NGX =    16 NGY =   16 NGZ =   28
   dimension x,y,z NGXF=    32 NGYF=   32 NGZF=   56
   support grid    NGXF=    32 NGYF=   32 NGZF=   56
   ions per type =               2
 NGX,Y,Z   is equivalent  to a cutoff of  12.09, 12.09, 12.96 a.u.
 NGXF,Y,Z  is equivalent  to a cutoff of  24.18, 24.18, 25.91 a.u.


 I would recommend the setting:
   dimension x,y,z NGX =    15 NGY =   15 NGZ =   25
 SYSTEM =  Si beta-tin                             
 POSCAR =  Si HCP                                  

 Startparameter for this run:
   NWRITE =      2    write-flag & timer
   PREC   = accura    normal or accurate (medium, high low for compatibility)
   ISTART =      0    job   : 0-new  1-cont  2-samecut
   ICHARG =      2    charge: 1-file 2-atom 10-const
   ISPIN  =      1    spin polarized calculation?
   LNONCOLLINEAR =      F non collinear calculations
   LSORBIT =      F    spin-orbit coupling
   INIWAV =      1    electr: 0-lowe 1-rand  2-diag
   LASPH  =      F    aspherical Exc in radial PAW
   METAGGA=      F    non-selfconsistent MetaGGA calc.

 Electronic Relaxation 1
   ENCUT  =  450.0 eV  33.07 Ry    5.75 a.u.   3.81  3.81  6.21*2*pi/ulx,y,z
   ENINI  =  450.0     initial cutoff
   ENAUG  =  322.1 eV  augmentation charge cutoff
   NELM   =     60;   NELMIN=  2; NELMDL= -5     # of ELM steps 
   EDIFF  = 0.1E-04   stopping-criterion for ELM
   LREAL  =      F    real-space projection
   NLSPLINE    = F    spline interpolate recip. space projectors
   LCOMPAT=      F    compatible to vasp.4.4
   GGA_COMPAT  = T    GGA compatible to vasp.4.4-vasp.4.6
   LMAXPAW     = -100 max onsite density
   LMAXMIX     =    2 max onsite mixed and CHGCAR
   VOSKOWN=      0    Vosko Wilk Nusair interpolation
   ROPT   =    0.00000
 Ionic relaxation
   EDIFFG = -.1E-01   stopping-criterion for IOM
   NSW    =    100    number of steps for IOM
   NBLOCK =      1;   KBLOCK =    100    inner block; outer block 
   IBRION =      2    ionic relax: 0-MD 1-quasi-New 2-CG
   NFREE  =      1    steps in history (QN), initial steepest desc. (CG)
   ISIF   =      4    stress and relaxation
   IWAVPR =     11    prediction:  0-non 1-charg 2-wave 3-comb
   ISYM   =      2    0-nonsym 1-usesym 2-fastsym
   LCORR  =      T    Harris-Foulkes like correction to forces

   POTIM  = 0.5000    time-step for ionic-motion
   TEIN   =    0.0    initial temperature
   TEBEG  =    0.0;   TEEND  =   0.0 temperature during run
   SMASS  =  -3.00    Nose mass-parameter (am)
   estimated Nose-frequenzy (Omega)   =  0.10E-29 period in steps =****** mass=  -0.111E-27a.u.
   SCALEE = 1.0000    scale energy and forces
   NPACO  =    256;   APACO  = 16.0  distance and # of slots for P.C.
   PSTRESS=    0.0 pullay stress

  Mass of Ions in am
   POMASS =  28.09
  Ionic Valenz
   ZVAL   =   4.00
  Atomic Wigner-Seitz radii
   RWIGS  =  -1.00
  virtual crystal weights 
   VCA    =   1.00
   NELECT =       8.0000    total number of electrons
   NUPDOWN=      -1.0000    fix difference up-down

 DOS related values:
   EMIN   =  10.00;   EMAX   =-10.00  energy-range for DOS
   EFERMI =   0.00
   ISMEAR =     0;   SIGMA  =   0.10  broadening in eV -4-tet -1-fermi 0-gaus

 Electronic relaxation 2 (details)
   IALGO  =     38    algorithm
   LDIAG  =      T    sub-space diagonalisation (order eigenvalues)
   LSUBROT=      F    optimize rotation matrix (better conditioning)
   TURBO    =      0    0=normal 1=particle mesh
   IRESTART =      0    0=no restart 2=restart with 2 vectors
   NREBOOT  =      0    no. of reboots
   NMIN     =      0    reboot dimension
   EREF     =   0.00    reference energy to select bands
   IMIX   =      4    mixing-type and parameters
     AMIX     =   0.40;   BMIX     =  1.00
     AMIX_MAG =   1.60;   BMIX_MAG =  1.00
     AMIN     =   0.10
     WC   =   100.;   INIMIX=   1;  MIXPRE=   1;  MAXMIX= -45

 Intra band minimization:
   WEIMIN = 0.0010     energy-eigenvalue tresh-hold
   EBREAK =  0.31E-06  absolut break condition
   DEPER  =   0.30     relativ break condition  

   TIME   =   0.40     timestep for ELM

  volume/ion in A,a.u.               =       7.53        50.81
  Fermi-wavevector in a.u.,A,eV,Ry     =   1.325900  2.505588 23.919188  1.758011
  Thomas-Fermi vector in A             =   2.455327
 
 Write flags
   LWAVE  =      T    write WAVECAR
   LCHARG =      T    write CHGCAR
   LVTOT  =      F    write LOCPOT, total local potential
   LVHAR  =      F    write LOCPOT, Hartree potential only
   LELF   =      F    write electronic localiz. function (ELF)
   LORBIT =      0    0 simple, 1 ext, 2 COOP (PROOUT)


 Dipole corrections
   LMONO  =      F    monopole corrections only (constant potential shift)
   LDIPOL =      F    correct potential (dipole corrections)
   IDIPOL =      0    1-x, 2-y, 3-z, 4-all directions 
   EPSILON=  1.0000000 bulk dielectric constant

 Exchange correlation treatment:
   GGA     =    --    GGA type
   LEXCH   =     8    internal setting for exchange type
   VOSKOWN=      0    Vosko Wilk Nusair interpolation
   LHFCALC =     F    Hartree Fock is set to
   LHFONE  =     F    Hartree Fock one center treatment
   AEXX    =    0.0000 exact exchange contribution

 Linear response parameters
   LEPSILON=     F    determine dielectric tensor
   LRPA    =     F    only Hartree local field effects (RPA)
   LNABLA  =     F    use nabla operator in PAW spheres
   LVEL    =     F    velocity operator in full k-point grid
   LINTERFAST=   F  fast interpolation
   KINTER  =     0    interpolate to denser k-point grid
   CSHIFT  =0.1000    complex shift for real part using Kramers Kronig
   OMEGAMAX=  -1.0    maximum frequency
   DEG_THRESHOLD= 0.2000000E-02 threshold for treating states as degnerate
   RTIME   =    0.100 relaxation time in fs

 Orbital magnetization related:
   ORBITALMAG=     F  switch on orbital magnetization
   LCHIMAG   =     F  perturbation theory with respect to B field
   DQ        =  0.001000  dq finite difference perturbation B field



--------------------------------------------------------------------------------------------------------


 conjugate gradient relaxation of ions
 charge density and potential will be updated during run
 non-spin polarized calculation
 Variant of blocked Davidson
 Davidson routine will perform the subspace rotation
 perform sub-space diagonalisation
    after iterative eigenvector-optimisation
 modified Broyden-mixing scheme, WC =      100.0
 initial mixing is a Kerker type mixing with AMIX =  0.4000 and BMIX =      1.0000
 Hartree-type preconditioning will be used
 using additional bands            4
 reciprocal scheme for non local part
 use partial core corrections
 calculate Harris-corrections to forces 
   (improved forces if not selfconsistent)
 use gradient corrections 
 use of overlap-Matrix (Vanderbilt PP)
 Gauss-broadening in eV      SIGMA  =   0.10


--------------------------------------------------------------------------------------------------------


  energy-cutoff  :      450.00
  volume of cell :       15.06
      direct lattice vectors                 reciprocal lattice vectors
     2.200000000  0.000000000  0.000000000     0.454545455  0.262431941  0.000000000
    -1.100000000  1.905255888  0.000000000     0.000000000  0.524863881  0.000000000
     0.000000000  0.000000000  3.592578000     0.000000000  0.000000000  0.278351646

  length of vectors
     2.200000000  2.200000000  3.592578000     0.524863881  0.524863881  0.278351646


 
 k-points in units of 2pi/SCALE and weight: K-Points                                
   0.08333333  0.14433757  0.05103114       0.019
   0.25000000  0.24056261  0.05103114       0.037
   0.41666667  0.33678766  0.05103114       0.037
  -0.41666667 -0.14433757  0.05103114       0.037
  -0.25000000 -0.04811252  0.05103114       0.037
  -0.08333333  0.04811252  0.05103114       0.019
   0.25000000  0.43301270  0.05103114       0.019
   0.41666667  0.52923775  0.05103114       0.037
  -0.41666667  0.04811252  0.05103114       0.037
  -0.25000000  0.14433757  0.05103114       0.019
   0.41666667  0.72168784  0.05103114       0.019
  -0.41666667  0.24056261  0.05103114       0.019
   0.08333333  0.14433757  0.15309341       0.019
   0.25000000  0.24056261  0.15309341       0.037
   0.41666667  0.33678766  0.15309341       0.037
  -0.41666667 -0.14433757  0.15309341       0.037
  -0.25000000 -0.04811252  0.15309341       0.037
  -0.08333333  0.04811252  0.15309341       0.019
   0.25000000  0.43301270  0.15309341       0.019
   0.41666667  0.52923775  0.15309341       0.037
  -0.41666667  0.04811252  0.15309341       0.037
  -0.25000000  0.14433757  0.15309341       0.019
   0.41666667  0.72168784  0.15309341       0.019
  -0.41666667  0.24056261  0.15309341       0.019
   0.08333333  0.14433757  0.25515568       0.019
   0.25000000  0.24056261  0.25515568       0.037
   0.41666667  0.33678766  0.25515568       0.037
  -0.41666667 -0.14433757  0.25515568       0.037
  -0.25000000 -0.04811252  0.25515568       0.037
  -0.08333333  0.04811252  0.25515568       0.019
   0.25000000  0.43301270  0.25515568       0.019
   0.41666667  0.52923775  0.25515568       0.037
  -0.41666667  0.04811252  0.25515568       0.037
  -0.25000000  0.14433757  0.25515568       0.019
   0.41666667  0.72168784  0.25515568       0.019
  -0.41666667  0.24056261  0.25515568       0.019
 
 k-points in reciprocal lattice and weights: K-Points                                
   0.08333333  0.08333333  0.08333333       0.019
   0.25000000  0.08333333  0.08333333       0.037
   0.41666667  0.08333333  0.08333333       0.037
  -0.41666667  0.08333333  0.08333333       0.037
  -0.25000000  0.08333333  0.08333333       0.037
  -0.08333333  0.08333333  0.08333333       0.019
   0.25000000  0.25000000  0.08333333       0.019
   0.41666667  0.25000000  0.08333333       0.037
  -0.41666667  0.25000000  0.08333333       0.037
  -0.25000000  0.25000000  0.08333333       0.019
   0.41666667  0.41666667  0.08333333       0.019
  -0.41666667  0.41666667  0.08333333       0.019
   0.08333333  0.08333333  0.25000000       0.019
   0.25000000  0.08333333  0.25000000       0.037
   0.41666667  0.08333333  0.25000000       0.037
  -0.41666667  0.08333333  0.25000000       0.037
  -0.25000000  0.08333333  0.25000000       0.037
  -0.08333333  0.08333333  0.25000000       0.019
   0.25000000  0.25000000  0.25000000       0.019
   0.41666667  0.25000000  0.25000000       0.037
  -0.41666667  0.25000000  0.25000000       0.037
  -0.25000000  0.25000000  0.25000000       0.019
   0.41666667  0.41666667  0.25000000       0.019
  -0.41666667  0.41666667  0.25000000       0.019
   0.08333333  0.08333333  0.41666667       0.019
   0.25000000  0.08333333  0.41666667       0.037
   0.41666667  0.08333333  0.41666667       0.037
  -0.41666667  0.08333333  0.41666667       0.037
  -0.25000000  0.08333333  0.41666667       0.037
  -0.08333333  0.08333333  0.41666667       0.019
   0.25000000  0.25000000  0.41666667       0.019
   0.41666667  0.25000000  0.41666667       0.037
  -0.41666667  0.25000000  0.41666667       0.037
  -0.25000000  0.25000000  0.41666667       0.019
   0.41666667  0.41666667  0.41666667       0.019
  -0.41666667  0.41666667  0.41666667       0.019
 
 position of ions in fractional coordinates (direct lattice) 
   0.00000000  0.00000000  0.00000000
   0.33333333  0.66666667  0.50000000
 
 position of ions in cartesian coordinates  (Angst):
   0.00000000  0.00000000  0.00000000
  -0.00000000  1.27017059  1.79628900
 


--------------------------------------------------------------------------------------------------------


 k-point  1 :   0.0833 0.0833 0.0833  plane waves:     325
 k-point  2 :   0.2500 0.0833 0.0833  plane waves:     324
 k-point  3 :   0.4167 0.0833 0.0833  plane waves:     331
 k-point  4 :  -0.4167 0.0833 0.0833  plane waves:     325
 k-point  5 :  -0.2500 0.0833 0.0833  plane waves:     329
 k-point  6 :  -0.0833 0.0833 0.0833  plane waves:     319
 k-point  7 :   0.2500 0.2500 0.0833  plane waves:     326
 k-point  8 :   0.4167 0.2500 0.0833  plane waves:     327
 k-point  9 :  -0.4167 0.2500 0.0833  plane waves:     321
 k-point 10 :  -0.2500 0.2500 0.0833  plane waves:     329
 k-point 11 :   0.4167 0.4167 0.0833  plane waves:     325
 k-point 12 :  -0.4167 0.4167 0.0833  plane waves:     330
 k-point 13 :   0.0833 0.0833 0.2500  plane waves:     325
 k-point 14 :   0.2500 0.0833 0.2500  plane waves:     326
 k-point 15 :   0.4167 0.0833 0.2500  plane waves:     327
 k-point 16 :  -0.4167 0.0833 0.2500  plane waves:     326
 k-point 17 :  -0.2500 0.0833 0.2500  plane waves:     323
 k-point 18 :  -0.0833 0.0833 0.2500  plane waves:     326
 k-point 19 :   0.2500 0.2500 0.2500  plane waves:     327
 k-point 20 :   0.4167 0.2500 0.2500  plane waves:     330
 k-point 21 :  -0.4167 0.2500 0.2500  plane waves:     324
 k-point 22 :  -0.2500 0.2500 0.2500  plane waves:     324
 k-point 23 :   0.4167 0.4167 0.2500  plane waves:     325
 k-point 24 :  -0.4167 0.4167 0.2500  plane waves:     324
 k-point 25 :   0.0833 0.0833 0.4167  plane waves:     323
 k-point 26 :   0.2500 0.0833 0.4167  plane waves:     323
 k-point 27 :   0.4167 0.0833 0.4167  plane waves:     330
 k-point 28 :  -0.4167 0.0833 0.4167  plane waves:     328
 k-point 29 :  -0.2500 0.0833 0.4167  plane waves:     322
 k-point 30 :  -0.0833 0.0833 0.4167  plane waves:     326
 k-point 31 :   0.2500 0.2500 0.4167  plane waves:     329
 k-point 32 :   0.4167 0.2500 0.4167  plane waves:     334
 k-point 33 :  -0.4167 0.2500 0.4167  plane waves:     325
 k-point 34 :  -0.2500 0.2500 0.4167  plane waves:     324
 k-point 35 :   0.4167 0.4167 0.4167  plane waves:     335
 k-point 36 :  -0.4167 0.4167 0.4167  plane waves:     325

 maximum and minimum number of plane-waves per node :       335      319

 maximum number of plane-waves:       335
 maximum index in each direction: 
   IXMAX=    4   IYMAX=    3   IZMAX=    6
   IXMIN=   -4   IYMIN=   -4   IZMIN=   -6

 WARNING: aliasing errors must be expected set NGX to  18 to avoid them
 NGY is ok and might be reduce to  16
 NGZ is ok and might be reduce to  26
 aliasing errors are usually negligible using standard VASP settings
 and one can safely disregard these warnings

 serial   3D FFT for wavefunctions
 parallel 3D FFT for charge:
    minimum data exchange during FFTs selected (reduces bandwidth)


 total amount of memory used by VASP on root node    32713. kBytes
========================================================================

   base      :      30000. kBytes
   nonl-proj :        784. kBytes
   fftplans  :        523. kBytes
   grid      :        995. kBytes
   one-center:          6. kBytes
   wavefun   :        405. kBytes
 
     INWAV:  cpu time    0.0000: real time    0.0000
 Broyden mixing: mesh for mixing (old mesh)
   NGX =  7   NGY =  7   NGZ = 13
  (NGX  = 32   NGY  = 32   NGZ  = 56)
  gives a total of    637 points

 initial charge density was supplied:
 charge density of overlapping atoms calculated
 number of electron       8.0000000 magnetization 
 keeping initial charge density in first step


--------------------------------------------------------------------------------------------------------


 Maximum index for augmentation-charges         3866 (set IRDMAX)


--------------------------------------------------------------------------------------------------------


 First call to EWALD:  gamma=   0.718
 Maximum number of real-space cells 3x 3x 2
 Maximum number of reciprocal cells 3x 3x 4

 FEWALD executed in parallel
    FEWALD:  cpu time    0.0020: real time    0.0010


----------------------------------------- Iteration    1(   1)  ---------------------------------------


    POTLOK:  cpu time    0.0320: real time    0.0219
    SETDIJ:  cpu time    0.0040: real time    0.0019
     EDDAV:  cpu time    1.3168: real time    0.8512
       DOS:  cpu time    0.0010: real time    0.0010
    --------------------------------------------
      LOOP:  cpu time    1.3558: real time    0.8786

 eigenvalue-minimisations  :   624
 total energy-change (2. order) : 0.9617099E+01  (-0.3845177E+03)
 number of electron       8.0000000 magnetization 
 augmentation part        8.0000000 magnetization 

 Free energy of the ion-electron system (eV)
  ---------------------------------------------------
  alpha Z        PSCENC =         8.94195122
  Ewald energy   TEWEN  =      -339.50622008
  -Hartree energ DENC   =        -0.37485983
  -exchange      EXHF   =         0.00000000
  -V(xc)+E(xc)   XCENC  =       -13.63929453
  PAW double counting   =       176.24759923     -141.06103558
  entropy T*S    EENTRO =        -0.00295049
  eigenvalues    EBANDS =       112.87998182
  atomic energy  EATOM  =       206.13192747
  Solvation  Ediel_sol  =         0.00000000
  ---------------------------------------------------
  free energy    TOTEN  =         9.61709924 eV

  energy without entropy =        9.62004973  energy(sigma->0) =        9.61857449


--------------------------------------------------------------------------------------------------------




----------------------------------------- Iteration    1(   2)  ---------------------------------------


     EDDAV:  cpu time    1.5428: real time    0.9736
       DOS:  cpu time    0.0020: real time    0.0009
    --------------------------------------------
      LOOP:  cpu time    1.5498: real time    0.9771

 eigenvalue-minimisations  :   872
 total energy-change (2. order) :-0.1381017E+02  (-0.1321498E+02)
 number of electron       8.0000000 magnetization 
 augmentation part        8.0000000 magnetization 

 Free energy of the ion-electron system (eV)
  ---------------------------------------------------
  alpha Z        PSCENC =         8.94195122
  Ewald energy   TEWEN  =      -339.50622008
  -Hartree energ DENC   =        -0.37485983
  -exchange      EXHF   =         0.00000000
  -V(xc)+E(xc)   XCENC  =       -13.63929453
  PAW double counting   =       176.24759923     -141.06103558
  entropy T*S    EENTRO =        -0.00589935
  eigenvalues    EBANDS =        99.07275755
  atomic energy  EATOM  =       206.13192747
  Solvation  Ediel_sol  =         0.00000000
  ---------------------------------------------------
  free energy    TOTEN  =        -4.19307388 eV

  energy without entropy =       -4.18717453  energy(sigma->0) =       -4.19012421


--------------------------------------------------------------------------------------------------------




----------------------------------------- Iteration    1(   3)  ---------------------------------------


     EDDAV:  cpu time    1.8247: real time    1.1709
       DOS:  cpu time    0.0090: real time    0.0052
    --------------------------------------------
      LOOP:  cpu time    1.8367: real time    1.1785

 eigenvalue-minimisations  :   704
 total energy-change (2. order) :-0.9238890E-01  (-0.9168577E-01)
 number of electron       8.0000000 magnetization 
 augmentation part        8.0000000 magnetization 

 Free energy of the ion-electron system (eV)
  ---------------------------------------------------
  alpha Z        PSCENC =         8.94195122
  Ewald energy   TEWEN  =      -339.50622008
  -Hartree energ DENC   =        -0.37485983
  -exchange      EXHF   =         0.00000000
  -V(xc)+E(xc)   XCENC  =       -13.63929453
  PAW double counting   =       176.24759923     -141.06103558
  entropy T*S    EENTRO =        -0.00740761
  eigenvalues    EBANDS =        98.98187691
  atomic energy  EATOM  =       206.13192747
  Solvation  Ediel_sol  =         0.00000000
  ---------------------------------------------------
  free energy    TOTEN  =        -4.28546278 eV

  energy without entropy =       -4.27805517  energy(sigma->0) =       -4.28175898


--------------------------------------------------------------------------------------------------------




----------------------------------------- Iteration    1(   4)  ---------------------------------------


     EDDAV:  cpu time    2.2147: real time    1.4509
       DOS:  cpu time    0.0020: real time    0.0010
    --------------------------------------------
      LOOP:  cpu time    2.2187: real time    1.4541

 eigenvalue-minimisations  :   936
 total energy-change (2. order) :-0.1455643E-03  (-0.1455428E-03)
 number of electron       8.0000000 magnetization 
 augmentation part        8.0000000 magnetization 

 Free energy of the ion-electron system (eV)
  ---------------------------------------------------
  alpha Z        PSCENC =         8.94195122
  Ewald energy   TEWEN  =      -339.50622008
  -Hartree energ DENC   =        -0.37485983
  -exchange      EXHF   =         0.00000000
  -V(xc)+E(xc)   XCENC  =       -13.63929453
  PAW double counting   =       176.24759923     -141.06103558
  entropy T*S    EENTRO =        -0.00741272
  eigenvalues    EBANDS =        98.98173646
  atomic energy  EATOM  =       206.13192747
  Solvation  Ediel_sol  =         0.00000000
  ---------------------------------------------------
  free energy    TOTEN  =        -4.28560835 eV

  energy without entropy =       -4.27819563  energy(sigma->0) =       -4.28190199


--------------------------------------------------------------------------------------------------------




----------------------------------------- Iteration    1(   5)  ---------------------------------------


     EDDAV:  cpu time    1.3868: real time    0.8654
       DOS:  cpu time    0.0100: real time    0.0077
    CHARGE:  cpu time    0.0180: real time    0.0112
    MIXING:  cpu time    0.0010: real time    0.0006
    --------------------------------------------
      LOOP:  cpu time    1.4208: real time    0.8884

 eigenvalue-minimisations  :   736
 total energy-change (2. order) :-0.7755034E-08  (-0.9514183E-08)
 number of electron       8.0000000 magnetization 
 augmentation part       -0.4778303 magnetization 

 Broyden mixing:
  rms(total) = 0.13139E+01    rms(broyden)= 0.13139E+01
  rms(prec ) = 0.13722E+01
  weight for this iteration     100.00

 Free energy of the ion-electron system (eV)
  ---------------------------------------------------
  alpha Z        PSCENC =         8.94195122
  Ewald energy   TEWEN  =      -339.50622008
  -Hartree energ DENC   =        -0.37485983
  -exchange      EXHF   =         0.00000000
  -V(xc)+E(xc)   XCENC  =       -13.63929453
  PAW double counting   =       176.24759923     -141.06103558
  entropy T*S    EENTRO =        -0.00741272
  eigenvalues    EBANDS =        98.98173645
  atomic energy  EATOM  =       206.13192747
  Solvation  Ediel_sol  =         0.00000000
  ---------------------------------------------------
  free energy    TOTEN  =        -4.28560835 eV

  energy without entropy =       -4.27819564  energy(sigma->0) =       -4.28190199


--------------------------------------------------------------------------------------------------------




----------------------------------------- Iteration    1(   6)  ---------------------------------------


    POTLOK:  cpu time    0.0370: real time    0.0263
    SETDIJ:  cpu time    0.0040: real time    0.0018
     EDDAV:  cpu time    1.2328: real time    0.7512
       DOS:  cpu time    0.0010: real time    0.0010
    CHARGE:  cpu time    0.0230: real time    0.0163
    MIXING:  cpu time    0.0020: real time    0.0010
    --------------------------------------------
      LOOP:  cpu time    1.3048: real time    0.7998

 eigenvalue-minimisations  :   648
 total energy-change (2. order) : 0.1324123E+00  (-0.7077404E-03)
 number of electron       8.0000000 magnetization 
 augmentation part       -0.4804755 magnetization 

 Broyden mixing:
  rms(total) = 0.74368E+00    rms(broyden)= 0.74368E+00
  rms(prec ) = 0.78184E+00
  weight for this iteration     100.00

 eigenvalues of (default mixing * dielectric matrix)
  average eigenvalue GAMMA=   2.2987
  2.2987

 Free energy of the ion-electron system (eV)
  ---------------------------------------------------
  alpha Z        PSCENC =         8.94195122
  Ewald energy   TEWEN  =      -339.50622008
  -Hartree energ DENC   =        -0.59076133
  -exchange      EXHF   =         0.00000000
  -V(xc)+E(xc)   XCENC  =       -13.39571975
  PAW double counting   =      1070.91768350    -1035.96764868
  entropy T*S    EENTRO =        -0.00751836
  eigenvalues    EBANDS =        99.32310997
  atomic energy  EATOM  =       206.13192747
  Solvation  Ediel_sol  =         0.00000000
  ---------------------------------------------------
  free energy    TOTEN  =        -4.15319603 eV

  energy without entropy =       -4.14567767  energy(sigma->0) =       -4.14943685


--------------------------------------------------------------------------------------------------------




----------------------------------------- Iteration    1(   7)  ---------------------------------------


    POTLOK:  cpu time    0.0230: real time    0.0165
    SETDIJ:  cpu time    0.0110: real time    0.0077
     EDDAV:  cpu time    1.6687: real time    1.0416
       DOS:  cpu time    0.0020: real time    0.0008
    CHARGE:  cpu time    0.0100: real time    0.0062
    MIXING:  cpu time    0.0010: real time    0.0008
    --------------------------------------------
      LOOP:  cpu time    1.7207: real time    1.0765

 eigenvalue-minimisations  :   656
 total energy-change (2. order) : 0.7811748E-01  (-0.1631905E-02)
 number of electron       8.0000000 magnetization 
 augmentation part       -0.4850100 magnetization 

 Broyden mixing:
  rms(total) = 0.40197E-01    rms(broyden)= 0.40197E-01
  rms(prec ) = 0.46685E-01
  weight for this iteration     100.00

 eigenvalues of (default mixing * dielectric matrix)
  average eigenvalue GAMMA=   2.6240
  2.6240  2.6240

 Free energy of the ion-electron system (eV)
  ---------------------------------------------------
  alpha Z        PSCENC =         8.94195122
  Ewald energy   TEWEN  =      -339.50622008
  -Hartree energ DENC   =        -1.01219448
  -exchange      EXHF   =         0.00000000
  -V(xc)+E(xc)   XCENC  =       -13.02612643
  PAW double counting   =      3578.72149763    -3544.13041639
  entropy T*S    EENTRO =        -0.00763157
  eigenvalues    EBANDS =        99.81213407
  atomic energy  EATOM  =       206.13192747
  Solvation  Ediel_sol  =         0.00000000
  ---------------------------------------------------
  free energy    TOTEN  =        -4.07507855 eV

  energy without entropy =       -4.06744698  energy(sigma->0) =       -4.07126276


--------------------------------------------------------------------------------------------------------




----------------------------------------- Iteration    1(   8)  ---------------------------------------


    POTLOK:  cpu time    0.0250: real time    0.0138
    SETDIJ:  cpu time    0.0060: real time    0.0051
     EDDAV:  cpu time    1.7547: real time    1.1009
       DOS:  cpu time    0.0020: real time    0.0009
    CHARGE:  cpu time    0.0130: real time    0.0062
    MIXING:  cpu time    0.0010: real time    0.0007
    --------------------------------------------
      LOOP:  cpu time    1.8057: real time    1.1302

 eigenvalue-minimisations  :   920
 total energy-change (2. order) : 0.6138629E-03  (-0.1950166E-04)
 number of electron       8.0000000 magnetization 
 augmentation part       -0.4854004 magnetization 

 Broyden mixing:
  rms(total) = 0.12640E-01    rms(broyden)= 0.12640E-01
  rms(prec ) = 0.13792E-01
  weight for this iteration     100.00

 eigenvalues of (default mixing * dielectric matrix)
  average eigenvalue GAMMA=   2.0477
  1.0902  2.3804  2.6726

 Free energy of the ion-electron system (eV)
  ---------------------------------------------------
  alpha Z        PSCENC =         8.94195122
  Ewald energy   TEWEN  =      -339.50622008
  -Hartree energ DENC   =        -1.05173208
  -exchange      EXHF   =         0.00000000
  -V(xc)+E(xc)   XCENC  =       -12.99189113
  PAW double counting   =      3463.20134744    -3428.63581236
  entropy T*S    EENTRO =        -0.00764173
  eigenvalues    EBANDS =        99.84360655
  atomic energy  EATOM  =       206.13192747
  Solvation  Ediel_sol  =         0.00000000
  ---------------------------------------------------
  free energy    TOTEN  =        -4.07446468 eV

  energy without entropy =       -4.06682296  energy(sigma->0) =       -4.07064382


--------------------------------------------------------------------------------------------------------




----------------------------------------- Iteration    1(   9)  ---------------------------------------


    POTLOK:  cpu time    0.0310: real time    0.0188
    SETDIJ:  cpu time    0.0040: real time    0.0021
     EDDAV:  cpu time    1.5708: real time    0.9807
       DOS:  cpu time    0.0140: real time    0.0071
    CHARGE:  cpu time    0.0180: real time    0.0123
    MIXING:  cpu time    0.0010: real time    0.0007
    --------------------------------------------
      LOOP:  cpu time    1.6438: real time    1.0245

 eigenvalue-minimisations  :   584
 total energy-change (2. order) : 0.2720988E-04  (-0.1086515E-05)
 number of electron       8.0000000 magnetization 
 augmentation part       -0.4855195 magnetization 

 Broyden mixing:
  rms(total) = 0.32960E-03    rms(broyden)= 0.32959E-03
  rms(prec ) = 0.74788E-03
  weight for this iteration     100.00

 eigenvalues of (default mixing * dielectric matrix)
  average eigenvalue GAMMA=   2.0039
  0.9864  2.5983  2.3739  2.0571

 Free energy of the ion-electron system (eV)
  ---------------------------------------------------
  alpha Z        PSCENC =         8.94195122
  Ewald energy   TEWEN  =      -339.50622008
  -Hartree energ DENC   =        -1.06441701
  -exchange      EXHF   =         0.00000000
  -V(xc)+E(xc)   XCENC  =       -12.98198375
  PAW double counting   =      3517.69023475    -3483.13373689
  entropy T*S    EENTRO =        -0.00764372
  eigenvalues    EBANDS =        99.85545052
  atomic energy  EATOM  =       206.13192747
  Solvation  Ediel_sol  =         0.00000000
  ---------------------------------------------------
  free energy    TOTEN  =        -4.07443747 eV

  energy without entropy =       -4.06679376  energy(sigma->0) =       -4.07061562


--------------------------------------------------------------------------------------------------------




----------------------------------------- Iteration    1(  10)  ---------------------------------------


    POTLOK:  cpu time    0.0250: real time    0.0175
    SETDIJ:  cpu time    0.0090: real time    0.0066
     EDDAV:  cpu time    0.6589: real time    0.4116
       DOS:  cpu time    0.0010: real time    0.0006
    --------------------------------------------
      LOOP:  cpu time    0.6979: real time    0.4390

 eigenvalue-minimisations  :   304
 total energy-change (2. order) : 0.4534186E-06  (-0.6377402E-07)
 number of electron       8.0000000 magnetization 
 augmentation part       -0.4855195 magnetization 

 Free energy of the ion-electron system (eV)
  ---------------------------------------------------
  alpha Z        PSCENC =         8.94195122
  Ewald energy   TEWEN  =      -339.50622008
  -Hartree energ DENC   =        -1.06435833
  -exchange      EXHF   =         0.00000000
  -V(xc)+E(xc)   XCENC  =       -12.98212387
  PAW double counting   =      3517.59938055    -3483.04269545
  entropy T*S    EENTRO =        -0.00764337
  eigenvalues    EBANDS =        99.85534484
  atomic energy  EATOM  =       206.13192747
  Solvation  Ediel_sol  =         0.00000000
  ---------------------------------------------------
  free energy    TOTEN  =        -4.07443702 eV

  energy without entropy =       -4.06679365  energy(sigma->0) =       -4.07061534


--------------------------------------------------------------------------------------------------------




 average (electrostatic) potential at core
  the test charge radii are     0.9892
  (the norm of the test charge is              1.0000)
       1 -68.8595       2 -68.8595
 
 
 
 E-fermi :  21.1020     XC(G=0): -14.0528     alpha+bet :-31.8551


 k-point     1 :       0.0833    0.0833    0.0833
  band No.  band energies     occupation 
      1       0.3587      2.00000
      2       9.1165      2.00000
      3      12.9629      2.00000
      4      27.5059      0.00000
      5      28.7424      0.00000
      6      34.9695      0.00000
      7      35.1040      0.00000
      8      35.6273      0.00000

 k-point     2 :       0.2500    0.0833    0.0833
  band No.  band energies     occupation 
      1       3.0585      2.00000
      2      11.5701      2.00000
      3      14.9910      2.00000
      4      19.3310      2.00000
      5      24.4403      0.00000
      6      27.2061      0.00000
      7      30.4754      0.00000
      8      33.0136      0.00000

 k-point     3 :       0.4167    0.0833    0.0833
  band No.  band energies     occupation 
      1       7.7366      2.00000
      2      10.7186      2.00000
      3      16.2713      2.00000
      4      19.0978      2.00000
      5      19.7732      2.00000
      6      22.0229      0.00000
      7      26.5608      0.00000
      8      31.4395      0.00000

 k-point     4 :      -0.4167    0.0833    0.0833
  band No.  band energies     occupation 
      1       5.1700      2.00000
      2      13.0363      2.00000
      3      14.6149      2.00000
      4      18.0971      2.00000
      5      22.1309      0.00000
      6      24.1311      0.00000
      7      28.0006      0.00000
      8      31.9576      0.00000

 k-point     5 :      -0.2500    0.0833    0.0833
  band No.  band energies     occupation 
      1       1.4465      2.00000
      2      10.1112      2.00000
      3      13.8762      2.00000
      4      23.2924      0.00000
      5      26.3273      0.00000
      6      31.1756      0.00000
      7      33.1644      0.00000
      8      34.7519      0.00000

 k-point     6 :      -0.0833    0.0833    0.0833
  band No.  band energies     occupation 
      1      -0.1892      2.00000
      2       8.6155      2.00000
      3      12.4840      2.00000
      4      30.2697      0.00000
      5      32.4223      0.00000
      6      33.7711      0.00000
      7      35.8244      0.00000
      8      36.9938      0.00000

 k-point     7 :       0.2500    0.2500    0.0833
  band No.  band energies     occupation 
      1       6.7252      2.00000
      2      14.2090      2.00000
      3      15.5886      2.00000
      4      16.2422      2.00000
      5      20.4250      2.00000
      6      24.2116      0.00000
      7      25.2037      0.00000
      8      28.7708      0.00000

 k-point     8 :       0.4167    0.2500    0.0833
  band No.  band energies     occupation 
      1       9.2499      2.00000
      2      12.1771      2.00000
      3      14.8562      2.00000
      4      18.0332      2.00000
      5      20.4901      2.00000
      6      22.0886      0.00000
      7      24.5752      0.00000
      8      26.9008      0.00000

 k-point     9 :      -0.4167    0.2500    0.0833
  band No.  band energies     occupation 
      1       4.6465      2.00000
      2      12.9482      2.00000
      3      15.6527      2.00000
      4      17.9529      2.00000
      5      21.1198      0.80171
      6      25.6078      0.00000
      7      28.4326      0.00000
      8      30.2686      0.00000

 k-point    10 :      -0.2500    0.2500    0.0833
  band No.  band energies     occupation 
      1       1.9865      2.00000
      2      10.6025      2.00000
      3      14.2838      2.00000
      4      21.1161      0.84251
      5      27.8056      0.00000
      6      29.1811      0.00000
      7      30.0859      0.00000
      8      35.2568      0.00000

 k-point    11 :       0.4167    0.4167    0.0833
  band No.  band energies     occupation 
      1       9.5392      2.00000
      2       9.9693      2.00000
      3      17.2609      2.00000
      4      18.2761      2.00000
      5      19.0455      2.00000
      6      21.6995      0.00000
      7      25.9361      0.00000
      8      27.7585      0.00000

 k-point    12 :      -0.4167    0.4167    0.0833
  band No.  band energies     occupation 
      1       6.2076      2.00000
      2      12.0148      2.00000
      3      14.9263      2.00000
      4      18.8470      2.00000
      5      20.6832      2.00000
      6      23.8294      0.00000
      7      27.5509      0.00000
      8      32.3802      0.00000

 k-point    13 :       0.0833    0.0833    0.2500
  band No.  band energies     occupation 
      1       0.9721      2.00000
      2       6.3373      2.00000
      3      16.7284      2.00000
      4      27.8451      0.00000
      5      29.0743      0.00000
      6      30.9116      0.00000
      7      33.2952      0.00000
      8      34.0635      0.00000

 k-point    14 :       0.2500    0.0833    0.2500
  band No.  band energies     occupation 
      1       3.6571      2.00000
      2       8.8768      2.00000
      3      17.9198      2.00000
      4      20.4883      2.00000
      5      23.3961      0.00000
      6      26.6011      0.00000
      7      30.1105      0.00000
      8      33.1371      0.00000

 k-point    15 :       0.4167    0.0833    0.2500
  band No.  band energies     occupation 
      1       8.2949      2.00000
      2      11.0785      2.00000
      3      13.9661      2.00000
      4      16.6292      2.00000
      5      22.3600      0.00000
      6      24.7979      0.00000
      7      28.0850      0.00000
      8      29.5670      0.00000

 k-point    16 :      -0.4167    0.0833    0.2500
  band No.  band energies     occupation 
      1       5.7555      2.00000
      2      10.7736      2.00000
      3      15.1555      2.00000
      4      19.8863      2.00000
      5      21.0801      1.24314
      6      25.3432      0.00000
      7      29.1277      0.00000
      8      30.9498      0.00000

 k-point    17 :      -0.2500    0.0833    0.2500
  band No.  band energies     occupation 
      1       2.0541      2.00000
      2       7.3643      2.00000
      3      17.5377      2.00000
      4      23.8027      0.00000
      5      26.4061      0.00000
      6      28.9997      0.00000
      7      31.2109      0.00000
      8      33.4995      0.00000

 k-point    18 :      -0.0833    0.0833    0.2500
  band No.  band energies     occupation 
      1       0.4272      2.00000
      2       5.8193      2.00000
      3      16.2852      2.00000
      4      29.9387      0.00000
      5      31.4620      0.00000
      6      32.8437      0.00000
      7      33.7248      0.00000
      8      36.1364      0.00000

 k-point    19 :       0.2500    0.2500    0.2500
  band No.  band energies     occupation 
      1       7.2996      2.00000
      2      12.1444      2.00000
      3      16.0800      2.00000
      4      16.8827      2.00000
      5      20.9580      1.95836
      6      22.3786      0.00000
      7      25.2451      0.00000
      8      32.2260      0.00000

 k-point    20 :       0.4167    0.2500    0.2500
  band No.  band energies     occupation 
      1       9.7935      2.00000
      2      12.5064      2.00000
      3      14.5789      2.00000
      4      16.4135      2.00000
      5      18.9273      2.00000
      6      21.4252      0.00000
      7      26.6207      0.00000
      8      29.8231      0.00000

 k-point    21 :      -0.4167    0.2500    0.2500
  band No.  band energies     occupation 
      1       5.2357      2.00000
      2      10.3435      2.00000
      3      17.2747      2.00000
      4      19.4601      2.00000
      5      21.4148      0.00001
      6      24.3684      0.00000
      7      26.5454      0.00000
      8      33.3739      0.00000

 k-point    22 :      -0.2500    0.2500    0.2500
  band No.  band energies     occupation 
      1       2.5911      2.00000
      2       7.8724      2.00000
      3      17.7997      2.00000
      4      21.7978      0.00000
      5      25.6758      0.00000
      6      29.6458      0.00000
      7      30.5065      0.00000
      8      33.8575      0.00000

 k-point    23 :       0.4167    0.4167    0.2500
  band No.  band energies     occupation 
      1      10.0615      2.00000
      2      10.4696      2.00000
      3      15.5122      2.00000
      4      15.6211      2.00000
      5      19.9137      2.00000
      6      23.9418      0.00000
      7      27.1324      0.00000
      8      28.2874      0.00000

 k-point    24 :      -0.4167    0.4167    0.2500
  band No.  band energies     occupation 
      1       6.7842      2.00000
      2      11.3911      2.00000
      3      13.6483      2.00000
      4      18.0976      2.00000
      5      22.2056      0.00000
      6      26.7467      0.00000
      7      28.0131      0.00000
      8      32.1465      0.00000

 k-point    25 :       0.0833    0.0833    0.4167
  band No.  band energies     occupation 
      1       2.1889      2.00000
      2       3.9888      2.00000
      3      21.0342      1.66256
      4      25.6553      0.00000
      5      28.9567      0.00000
      6      29.3817      0.00000
      7      32.1211      0.00000
      8      32.5687      0.00000

 k-point    26 :       0.2500    0.0833    0.4167
  band No.  band energies     occupation 
      1       4.8440      2.00000
      2       6.5969      2.00000
      3      19.8757      2.00000
      4      21.5636      0.00000
      5      23.4680      0.00000
      6      26.3641      0.00000
      7      28.7022      0.00000
      8      30.5612      0.00000

 k-point    27 :       0.4167    0.0833    0.4167
  band No.  band energies     occupation 
      1       9.3731      2.00000
      2      10.7432      2.00000
      3      13.2313      2.00000
      4      14.5626      2.00000
      5      24.3943      0.00000
      6      25.9556      0.00000
      7      29.4651      0.00000
      8      31.2343      0.00000

 k-point    28 :      -0.4167    0.0833    0.4167
  band No.  band energies     occupation 
      1       6.9133      2.00000
      2       8.6121      2.00000
      3      16.2531      2.00000
      4      17.8606      2.00000
      5      24.1314      0.00000
      6      26.0775      0.00000
      7      28.4961      0.00000
      8      31.3188      0.00000

 k-point    29 :      -0.2500    0.0833    0.4167
  band No.  band energies     occupation 
      1       3.2591      2.00000
      2       5.0410      2.00000
      3      21.5931      0.00000
      4      24.6655      0.00000
      5      25.4920      0.00000
      6      26.5711      0.00000
      7      29.8521      0.00000
      8      30.9989      0.00000

 k-point    30 :      -0.0833    0.0833    0.4167
  band No.  band energies     occupation 
      1       1.6499      2.00000
      2       3.4586      2.00000
      3      20.6504      2.00000
      4      25.4183      0.00000
      5      31.7511      0.00000
      6      32.7714      0.00000
      7      33.6691      0.00000
      8      34.8374      0.00000

 k-point    31 :       0.2500    0.2500    0.4167
  band No.  band energies     occupation 
      1       8.4324      2.00000
      2      10.0829      2.00000
      3      16.9416      2.00000
      4      17.4515      2.00000
      5      19.9859      2.00000
      6      20.5946      2.00000
      7      28.6962      0.00000
      8      33.1244      0.00000

 k-point    32 :       0.4167    0.2500    0.4167
  band No.  band energies     occupation 
      1      10.8358      2.00000
      2      12.1419      2.00000
      3      14.3911      2.00000
      4      15.4220      2.00000
      5      18.4926      2.00000
      6      19.6382      2.00000
      7      30.7319      0.00000
      8      33.6962      0.00000

 k-point    33 :      -0.4167    0.2500    0.4167
  band No.  band energies     occupation 
      1       6.4026      2.00000
      2       8.1215      2.00000
      3      18.4738      2.00000
      4      19.7651      2.00000
      5      21.9164      0.00000
      6      23.4630      0.00000
      7      27.5064      0.00000
      8      31.3880      0.00000

 k-point    34 :      -0.2500    0.2500    0.4167
  band No.  band energies     occupation 
      1       3.7902      2.00000
      2       5.5627      2.00000
      3      21.1576      0.43168
      4      23.1305      0.00000
      5      24.0953      0.00000
      6      27.3943      0.00000
      7      30.5793      0.00000
      8      31.9863      0.00000

 k-point    35 :       0.4167    0.4167    0.4167
  band No.  band energies     occupation 
      1      10.9785      2.00000
      2      11.2426      2.00000
      3      13.6999      2.00000
      4      13.8363      2.00000
      5      21.1007      1.01516
      6      22.6619      0.00000
      7      30.6695      0.00000
      8      31.7880      0.00000

 k-point    36 :      -0.4167    0.4167    0.4167
  band No.  band energies     occupation 
      1       7.9194      2.00000
      2       9.5554      2.00000
      3      14.4028      2.00000
      4      15.9854      2.00000
      5      25.8362      0.00000
      6      28.4099      0.00000
      7      28.9395      0.00000
      8      30.3283      0.00000


--------------------------------------------------------------------------------------------------------


 soft charge-density along one line, spin component           1
         0         1         2         3         4         5         6         7         8         9
 total charge-density along one line
 
 pseudopotential strength for first ion, spin component:           1
 16.791  23.415   0.000  -0.000  -0.000   0.000  -0.000  -0.000
 23.415  32.657   0.000  -0.000  -0.000   0.000  -0.000  -0.000
  0.000   0.000   3.959  -0.000   0.000   7.364  -0.000   0.000
 -0.000  -0.000  -0.000   3.959  -0.000  -0.000   7.364  -0.000
 -0.000  -0.000   0.000  -0.000   3.959   0.000  -0.000   7.364
  0.000   0.000   7.364  -0.000   0.000  13.708  -0.000   0.000
 -0.000  -0.000  -0.000   7.364  -0.000  -0.000  13.708  -0.000
 -0.000  -0.000   0.000  -0.000   7.364   0.000  -0.000  13.708
 total augmentation occupancy for first ion, spin component:           1
 14.857  -7.938   0.000   0.000   0.000   0.000   0.000   0.000
 -7.938   4.531  -0.000   0.000   0.000  -0.000   0.000  -0.000
  0.000   0.000   6.311   0.000   0.000  -1.947   0.000   0.000
  0.000   0.000   0.000   6.337   0.000   0.000  -1.941  -0.000
  0.000   0.000   0.000  -0.000   6.311   0.000  -0.000  -1.947
  0.000   0.000  -1.947   0.000   0.000   0.632  -0.000   0.000
  0.000   0.000   0.000  -1.941  -0.000   0.000   0.630   0.000
  0.000   0.000   0.000  -0.000  -1.947  -0.000   0.000   0.632


------------------------ aborting loop because EDIFF is reached ----------------------------------------


    CHARGE:  cpu time    0.0180: real time    0.0115
    FORLOC:  cpu time    0.0010: real time    0.0004
    FORNL :  cpu time    0.0420: real time    0.0278
    STRESS:  cpu time    0.1800: real time    0.1178
    FORCOR:  cpu time    0.0450: real time    0.0300
    FORHAR:  cpu time    0.0040: real time    0.0020
    MIXING:  cpu time    0.0010: real time    0.0008
    OFIELD:  cpu time    0.0000: real time    0.0000

  FORCE on cell =-STRESS in cart. coord.  units (eV):
  Direction    XX          YY          ZZ          XY          YZ          ZX
  --------------------------------------------------------------------------------------
  Alpha Z     8.94195     8.94195     8.94195
  Ewald    -113.24626  -113.24626  -113.01393    -0.00000     0.00000     0.00000
  Hartree     0.34322     0.34322     0.37800    -0.00000    -0.00000    -0.00000
  E(xc)     -31.39346   -31.39346   -31.41777    -0.00000     0.00000     0.00000
  Local      -3.43116    -3.43116    -3.87865    -0.00001    -0.00000    -0.00000
  n-local    82.66940    92.24539    87.93331    -2.96123     0.68784    -1.05119
  augment   -11.96322   -11.96322   -12.05671     0.00001    -0.00000     0.00000
  Kinetic   107.16186    63.65544    86.86357    13.63109     0.00516    -0.16846
  Fock        0.00000     0.00000     0.00000     0.00000     0.00000     0.00000
  -------------------------------------------------------------------------------------
  Total      22.11711    22.11711    23.74976     0.00000     0.00000     0.00000
  in kB    2353.18879  2353.18879  2526.89766     0.00000     0.00000     0.00000
  external pressure =     2411.09 kB  Pullay stress =        0.00 kB


 VOLUME and BASIS-vectors are now :
 -----------------------------------------------------------------------------
  energy-cutoff  :      450.00
  volume of cell :       15.06
      direct lattice vectors                 reciprocal lattice vectors
     2.200000000  0.000000000  0.000000000     0.454545455  0.262431941  0.000000000
    -1.100000000  1.905255888  0.000000000     0.000000000  0.524863881  0.000000000
     0.000000000  0.000000000  3.592578000     0.000000000  0.000000000  0.278351646

  length of vectors
     2.200000000  2.200000000  3.592578000     0.524863881  0.524863881  0.278351646


 FORCES acting on ions
    electron-ion (+dipol)            ewald-force                    non-local-force                 convergence-correction
 -----------------------------------------------------------------------------------------------
   -.390E-08 0.225E-08 0.817E-15   -.137E-12 0.115E-12 -.646E-14   -.173E-17 -.694E-17 0.000E+00   0.136E-09 -.787E-10 -.292E-15
   -.625E-08 0.361E-08 -.943E-13   0.137E-12 -.113E-12 0.646E-14   -.113E-16 0.694E-17 0.000E+00   -.137E-09 0.789E-10 0.245E-15
 -----------------------------------------------------------------------------------------------
   -.101E-07 0.586E-08 -.935E-13   0.486E-15 0.195E-14 0.000E+00   -.130E-16 0.000E+00 0.000E+00   -.337E-12 0.195E-12 -.468E-16
 
 
 POSITION                                       TOTAL-FORCE (eV/Angst)
 -----------------------------------------------------------------------------------
      0.00000      0.00000      0.00000        -0.000000      0.000000      0.000000
     -0.00000      1.27017      1.79629         0.000000     -0.000000      0.000000
 -----------------------------------------------------------------------------------
    total drift:                               -0.000000      0.000000     -0.000000


--------------------------------------------------------------------------------------------------------



  FREE ENERGIE OF THE ION-ELECTRON SYSTEM (eV)
  ---------------------------------------------------
  free  energy   TOTEN  =        -4.07443702 eV

  energy  without entropy=       -4.06679365  energy(sigma->0) =       -4.07061534
 


--------------------------------------------------------------------------------------------------------


    POTLOK:  cpu time    0.0390: real time    0.0274


--------------------------------------------------------------------------------------------------------




--------------------------------------------------------------------------------------------------------


    WAVPRE:  cpu time    0.0020: real time    0.0017
 FEWALD executed in parallel
    FEWALD:  cpu time    0.0000: real time    0.0001
    GENKIN:  cpu time    0.0050: real time    0.0051
    ORTHCH:  cpu time    0.1340: real time    0.0884
     LOOP+:  cpu time   16.1895: real time   10.2886


----------------------------------------- Iteration    2(   1)  ---------------------------------------


    POTLOK:  cpu time    0.0170: real time    0.0130
    SETDIJ:  cpu time    0.0060: real time    0.0034
     EDDAV:  cpu time    2.0907: real time    1.2852
       DOS:  cpu time    0.0020: real time    0.0011
    CHARGE:  cpu time    0.0140: real time    0.0103
    MIXING:  cpu time    0.0020: real time    0.0009
    --------------------------------------------
      LOOP:  cpu time    2.1337: real time    1.3152

 eigenvalue-minimisations  :   848
 total energy-change (2. order) :-0.3009025E-01  (-0.1036076E+00)
 number of electron       8.0000000 magnetization 
 augmentation part       -0.4827613 magnetization 

 Broyden mixing:
  rms(total) = 0.68838E-01    rms(broyden)= 0.68837E-01
  rms(prec ) = 0.15757E+00
  weight for this iteration     100.00

 Free energy of the ion-electron system (eV)
  ---------------------------------------------------
  alpha Z        PSCENC =         8.94195122
  Ewald energy   TEWEN  =      -339.43593471
  -Hartree energ DENC   =        -1.06319881
  -exchange      EXHF   =         0.00000000
  -V(xc)+E(xc)   XCENC  =       -12.98247683
  PAW double counting   =      3517.19283829    -3482.63619426
  entropy T*S    EENTRO =        -0.00406730
  eigenvalues    EBANDS =        99.75062720
  atomic energy  EATOM  =       206.13192747
  Solvation  Ediel_sol  =         0.00000000
  ---------------------------------------------------
  free energy    TOTEN  =        -4.10452772 eV

  energy without entropy =       -4.10046042  energy(sigma->0) =       -4.10249407


--------------------------------------------------------------------------------------------------------




----------------------------------------- Iteration    2(   2)  ---------------------------------------


    POTLOK:  cpu time    0.0180: real time    0.0093
    SETDIJ:  cpu time    0.0100: real time    0.0080
     EDDAV:  cpu time    1.2478: real time    0.7913
       DOS:  cpu time    0.0020: real time    0.0008
    CHARGE:  cpu time    0.0110: real time    0.0057
    MIXING:  cpu time    0.0020: real time    0.0008
    --------------------------------------------
      LOOP:  cpu time    1.2938: real time    0.8178

 eigenvalue-minimisations  :   608
 total energy-change (2. order) : 0.8889365E-02  (-0.1374909E-02)
 number of electron       8.0000000 magnetization 
 augmentation part       -0.4827673 magnetization 

 Broyden mixing:
  rms(total) = 0.35352E-01    rms(broyden)= 0.35352E-01
  rms(prec ) = 0.82838E-01
  weight for this iteration     100.00

 eigenvalues of (default mixing * dielectric matrix)
  average eigenvalue GAMMA=   1.9621
  1.9621

 Free energy of the ion-electron system (eV)
  ---------------------------------------------------
  alpha Z        PSCENC =         8.94195122
  Ewald energy   TEWEN  =      -339.43593471
  -Hartree energ DENC   =        -1.06627653
  -exchange      EXHF   =         0.00000000
  -V(xc)+E(xc)   XCENC  =       -12.98055948
  PAW double counting   =      3524.52897203    -3489.97478745
  entropy T*S    EENTRO =        -0.00440081
  eigenvalues    EBANDS =        99.76346990
  atomic energy  EATOM  =       206.13192747
  Solvation  Ediel_sol  =         0.00000000
  ---------------------------------------------------
  free energy    TOTEN  =        -4.09563836 eV

  energy without entropy =       -4.09123754  energy(sigma->0) =       -4.09343795


--------------------------------------------------------------------------------------------------------




----------------------------------------- Iteration    2(   3)  ---------------------------------------


    POTLOK:  cpu time    0.0170: real time    0.0088
    SETDIJ:  cpu time    0.0080: real time    0.0066
     EDDAV:  cpu time    1.9937: real time    1.2744
       DOS:  cpu time    0.0020: real time    0.0009
    CHARGE:  cpu time    0.0170: real time    0.0099
    MIXING:  cpu time    0.0020: real time    0.0006
    --------------------------------------------
      LOOP:  cpu time    2.0447: real time    1.3053

 eigenvalue-minimisations  :   832
 total energy-change (2. order) : 0.3593107E-02  (-0.8689208E-03)
 number of electron       8.0000000 magnetization 
 augmentation part       -0.4827860 magnetization 

 Broyden mixing:
  rms(total) = 0.24226E-02    rms(broyden)= 0.24223E-02
  rms(prec ) = 0.36508E-02
  weight for this iteration     100.00

 eigenvalues of (default mixing * dielectric matrix)
  average eigenvalue GAMMA=   1.5746
  1.0744  2.0747

 Free energy of the ion-electron system (eV)
  ---------------------------------------------------
  alpha Z        PSCENC =         8.94195122
  Ewald energy   TEWEN  =      -339.43593471
  -Hartree energ DENC   =        -1.08128415
  -exchange      EXHF   =         0.00000000
  -V(xc)+E(xc)   XCENC  =       -12.97689365
  PAW double counting   =      3529.43249938    -3494.88028154
  entropy T*S    EENTRO =        -0.00480953
  eigenvalues    EBANDS =        99.78078025
  atomic energy  EATOM  =       206.13192747
  Solvation  Ediel_sol  =         0.00000000
  ---------------------------------------------------
  free energy    TOTEN  =        -4.09204525 eV

  energy without entropy =       -4.08723572  energy(sigma->0) =       -4.08964048


--------------------------------------------------------------------------------------------------------




----------------------------------------- Iteration    2(   4)  ---------------------------------------


    POTLOK:  cpu time    0.0360: real time    0.0206
    SETDIJ:  cpu time    0.0040: real time    0.0018
     EDDAV:  cpu time    1.1618: real time    0.7082
       DOS:  cpu time    0.0010: real time    0.0006
    CHARGE:  cpu time    0.0110: real time    0.0057
    MIXING:  cpu time    0.0020: real time    0.0008
    --------------------------------------------
      LOOP:  cpu time    1.2248: real time    0.7452

 eigenvalue-minimisations  :   592
 total energy-change (2. order) :-0.1579747E-04  (-0.1658300E-04)
 number of electron       8.0000000 magnetization 
 augmentation part       -0.4827846 magnetization 

 Broyden mixing:
  rms(total) = 0.20700E-02    rms(broyden)= 0.20700E-02
  rms(prec ) = 0.27453E-02
  weight for this iteration     100.00

 eigenvalues of (default mixing * dielectric matrix)
  average eigenvalue GAMMA=   1.6432
  2.1671  1.3812  1.3812

 Free energy of the ion-electron system (eV)
  ---------------------------------------------------
  alpha Z        PSCENC =         8.94195122
  Ewald energy   TEWEN  =      -339.43593471
  -Hartree energ DENC   =        -1.08173198
  -exchange      EXHF   =         0.00000000
  -V(xc)+E(xc)   XCENC  =       -12.97674612
  PAW double counting   =      3530.80677219    -3496.25424154
  entropy T*S    EENTRO =        -0.00480428
  eigenvalues    EBANDS =        99.78074669
  atomic energy  EATOM  =       206.13192747
  Solvation  Ediel_sol  =         0.00000000
  ---------------------------------------------------
  free energy    TOTEN  =        -4.09206105 eV

  energy without entropy =       -4.08725677  energy(sigma->0) =       -4.08965891


--------------------------------------------------------------------------------------------------------




----------------------------------------- Iteration    2(   5)  ---------------------------------------


    POTLOK:  cpu time    0.0150: real time    0.0077
    SETDIJ:  cpu time    0.0040: real time    0.0019
     EDDAV:  cpu time    0.8859: real time    0.5338
       DOS:  cpu time    0.0020: real time    0.0009
    --------------------------------------------
      LOOP:  cpu time    0.9179: real time    0.5530

 eigenvalue-minimisations  :   456
 total energy-change (2. order) :-0.1060240E-05  (-0.7205013E-07)
 number of electron       8.0000000 magnetization 
 augmentation part       -0.4827846 magnetization 

 Free energy of the ion-electron system (eV)
  ---------------------------------------------------
  alpha Z        PSCENC =         8.94195122
  Ewald energy   TEWEN  =      -339.43593471
  -Hartree energ DENC   =        -1.08241365
  -exchange      EXHF   =         0.00000000
  -V(xc)+E(xc)   XCENC  =       -12.97653826
  PAW double counting   =      3532.31480438    -3497.76207014
  entropy T*S    EENTRO =        -0.00480640
  eigenvalues    EBANDS =        99.78101798
  atomic energy  EATOM  =       206.13192747
  Solvation  Ediel_sol  =         0.00000000
  ---------------------------------------------------
  free energy    TOTEN  =        -4.09206211 eV

  energy without entropy =       -4.08725570  energy(sigma->0) =       -4.08965891


--------------------------------------------------------------------------------------------------------




 average (electrostatic) potential at core
  the test charge radii are     0.9892
  (the norm of the test charge is              1.0000)
       1 -68.8638       2 -68.8638
 
 
 
 E-fermi :  20.8353     XC(G=0): -14.0517     alpha+bet :-31.8551


 k-point     1 :       0.0833    0.0833    0.0833
  band No.  band energies     occupation 
      1       0.3771      2.00000
      2       8.7458      2.00000
      3      12.3150      2.00000
      4      28.0773      0.00000
      5      29.4419      0.00000
      6      34.4177      0.00000
      7      35.3677      0.00000
      8      36.0643      0.00000

 k-point     2 :       0.2500    0.0833    0.0833
  band No.  band energies     occupation 
      1       3.1456      2.00000
      2      11.2830      2.00000
      3      14.5424      2.00000
      4      19.6561      2.00000
      5      24.7994      0.00000
      6      27.4994      0.00000
      7      30.6239      0.00000
      8      33.3373      0.00000

 k-point     3 :       0.4167    0.0833    0.0833
  band No.  band energies     occupation 
      1       7.9292      2.00000
      2      10.9707      2.00000
      3      16.1443      2.00000
      4      18.9833      2.00000
      5      19.5302      2.00000
      6      21.8356      0.00000
      7      26.9012      0.00000
      8      31.7864      0.00000

 k-point     4 :      -0.4167    0.0833    0.0833
  band No.  band energies     occupation 
      1       5.3081      2.00000
      2      12.9399      2.00000
      3      14.6903      2.00000
      4      17.7679      2.00000
      5      22.2074      0.00000
      6      24.3164      0.00000
      7      28.1797      0.00000
      8      32.3027      0.00000

 k-point     5 :      -0.2500    0.0833    0.0833
  band No.  band energies     occupation 
      1       1.4930      2.00000
      2       9.7736      2.00000
      3      13.2784      2.00000
      4      23.8012      0.00000
      5      26.8870      0.00000
      6      31.4923      0.00000
      7      33.4484      0.00000
      8      35.0550      0.00000

 k-point     6 :      -0.0833    0.0833    0.0833
  band No.  band energies     occupation 
      1      -0.1851      2.00000
      2       8.2281      2.00000
      3      11.8153      2.00000
      4      30.8596      0.00000
      5      33.2633      0.00000
      6      33.7878      0.00000
      7      35.2399      0.00000
      8      37.6991      0.00000

 k-point     7 :       0.2500    0.2500    0.0833
  band No.  band energies     occupation 
      1       6.8991      2.00000
      2      14.1813      2.00000
      3      15.9221      2.00000
      4      16.2722      2.00000
      5      20.0935      2.00000
      6      24.3879      0.00000
      7      25.2879      0.00000
      8      28.5308      0.00000

 k-point     8 :       0.4167    0.2500    0.0833
  band No.  band energies     occupation 
      1       9.4740      2.00000
      2      12.4556      2.00000
      3      15.1281      2.00000
      4      17.9717      2.00000
      5      20.2760      2.00000
      6      21.9153      0.00000
      7      24.6169      0.00000
      8      26.6350      0.00000

 k-point     9 :      -0.4167    0.2500    0.0833
  band No.  band energies     occupation 
      1       4.7723      2.00000
      2      12.7205      2.00000
      3      15.4848      2.00000
      4      18.1478      2.00000
      5      21.3132      0.00000
      6      25.8025      0.00000
      7      28.6018      0.00000
      8      30.1790      0.00000

 k-point    10 :      -0.2500    0.2500    0.0833
  band No.  band energies     occupation 
      1       2.0467      2.00000
      2      10.2815      2.00000
      3      13.7248      2.00000
      4      21.5554      0.00000
      5      27.9976      0.00000
      6      30.0212      0.00000
      7      30.3506      0.00000
      8      34.7597      0.00000

 k-point    11 :       0.4167    0.4167    0.0833
  band No.  band energies     occupation 
      1       9.7345      2.00000
      2      10.2511      2.00000
      3      17.3789      2.00000
      4      18.1068      2.00000
      5      19.1498      2.00000
      6      21.2432      0.00000
      7      25.8535      0.00000
      8      27.9688      0.00000

 k-point    12 :      -0.4167    0.4167    0.0833
  band No.  band energies     occupation 
      1       6.3692      2.00000
      2      12.2256      2.00000
      3      14.7996      2.00000
      4      18.3961      2.00000
      5      20.6758      1.97590
      6      23.6311      0.00000
      7      28.3770      0.00000
      8      32.5846      0.00000

 k-point    13 :       0.0833    0.0833    0.2500
  band No.  band energies     occupation 
      1       0.9596      2.00000
      2       6.0685      2.00000
      3      15.9441      2.00000
      4      28.1217      0.00000
      5      29.7226      0.00000
      6      30.0783      0.00000
      7      33.7976      0.00000
      8      34.5444      0.00000

 k-point    14 :       0.2500    0.0833    0.2500
  band No.  band energies     occupation 
      1       3.7139      2.00000
      2       8.6855      2.00000
      3      17.6589      2.00000
      4      20.4921      2.00000
      5      23.6432      0.00000
      6      27.0032      0.00000
      7      30.3368      0.00000
      8      33.2912      0.00000

 k-point    15 :       0.4167    0.0833    0.2500
  band No.  band energies     occupation 
      1       8.4574      2.00000
      2      11.2627      2.00000
      3      13.9629      2.00000
      4      16.6550      2.00000
      5      22.2643      0.00000
      6      24.5137      0.00000
      7      28.2044      0.00000
      8      29.8073      0.00000

 k-point    16 :      -0.4167    0.0833    0.2500
  band No.  band energies     occupation 
      1       5.8637      2.00000
      2      10.6527      2.00000
      3      15.4299      2.00000
      4      19.9278      2.00000
      5      20.6932      1.95556
      6      25.6133      0.00000
      7      29.3844      0.00000
      8      30.9955      0.00000

 k-point    17 :      -0.2500    0.0833    0.2500
  band No.  band energies     occupation 
      1       2.0699      2.00000
      2       7.1266      2.00000
      3      16.8278      2.00000
      4      24.2555      0.00000
[...]

 k-point     2 :       0.2500    0.0833    0.0833
  band No.  band energies     occupation 
      1       3.1169      2.00000
      2      11.3757      2.00000
      3      14.6913      2.00000
      4      19.5434      2.00000
      5      24.6850      0.00000
      6      27.4003      0.00000
      7      30.5748      0.00000
      8      33.2399      0.00000

 k-point     3 :       0.4167    0.0833    0.0833
  band No.  band energies     occupation 
      1       7.8658      2.00000
      2      10.8885      2.00000
      3      16.1840      2.00000
      4      19.0258      2.00000
      5      19.6069      2.00000
      6      21.8919      0.00000
      7      26.7832      0.00000
      8      31.6722      0.00000

 k-point     4 :      -0.4167    0.0833    0.0833
  band No.  band energies     occupation 
      1       5.2626      2.00000
      2      12.9774      2.00000
      3      14.6641      2.00000
      4      17.8672      2.00000
      5      22.1824      0.00000
      6      24.2577      0.00000
      7      28.1138      0.00000
      8      32.1907      0.00000

 k-point     5 :      -0.2500    0.0833    0.0833
  band No.  band energies     occupation 
      1       1.4777      2.00000
      2       9.8827      2.00000
      3      13.4712      2.00000
      4      23.6334      0.00000
      5      26.7048      0.00000
      6      31.3926      0.00000
      7      33.3606      0.00000
      8      35.0123      0.00000

 k-point     6 :      -0.0833    0.0833    0.0833
  band No.  band energies     occupation 
      1      -0.1865      2.00000
      2       8.3535      2.00000
      3      12.0304      2.00000
      4      30.6800      0.00000
      5      32.9874      0.00000
      6      33.8867      0.00000
      7      35.3308      0.00000
      8      37.4745      0.00000

 k-point     7 :       0.2500    0.2500    0.0833
  band No.  band energies     occupation 
      1       6.8418      2.00000
      2      14.1961      2.00000
      3      15.8117      2.00000
      4      16.2623      2.00000
      5      20.1907      2.00000
      6      24.3281      0.00000
      7      25.2568      0.00000
      8      28.6040      0.00000

 k-point     8 :       0.4167    0.2500    0.0833
  band No.  band energies     occupation 
      1       9.4003      2.00000
      2      12.3648      2.00000
      3      15.0410      2.00000
      4      17.9893      2.00000
      5      20.3497      2.00000
      6      21.9611      0.00000
      7      24.5975      0.00000
      8      26.7181      0.00000

 k-point     9 :      -0.4167    0.2500    0.0833
  band No.  band energies     occupation 
      1       4.7308      2.00000
      2      12.7945      2.00000
      3      15.5510      2.00000
      4      18.0756      2.00000
      5      21.2417      0.00043
      6      25.7362      0.00000
      7      28.5465      0.00000
      8      30.2024      0.00000

 k-point    10 :      -0.2500    0.2500    0.0833
  band No.  band energies     occupation 
      1       2.0268      2.00000
      2      10.3851      2.00000
      3      13.9059      2.00000
      4      21.4087      0.00000
      5      27.9358      0.00000
      6      29.7443      0.00000
      7      30.2648      0.00000
      8      34.9568      0.00000

 k-point    11 :       0.4167    0.4167    0.0833
  band No.  band energies     occupation 
      1       9.6692      2.00000
      2      10.1598      2.00000
      3      17.3436      2.00000
      4      18.1607      2.00000
      5      19.1145      2.00000
      6      21.3845      0.00000
      7      25.8748      0.00000
      8      27.8974      0.00000

 k-point    12 :      -0.4167    0.4167    0.0833
  band No.  band energies     occupation 
      1       6.3160      2.00000
      2      12.1597      2.00000
      3      14.8369      2.00000
      4      18.5393      2.00000
      5      20.6769      1.99999
      6      23.6938      0.00000
      7      28.1044      0.00000
      8      32.5173      0.00000

 k-point    13 :       0.0833    0.0833    0.2500
  band No.  band energies     occupation 
      1       0.9635      2.00000
      2       6.1552      2.00000
      3      16.1974      2.00000
      4      28.0760      0.00000
      5      29.5106      0.00000
      6      30.3206      0.00000
      7      33.6308      0.00000
      8      34.3745      0.00000

 k-point    14 :       0.2500    0.0833    0.2500
  band No.  band energies     occupation 
      1       3.6949      2.00000
      2       8.7467      2.00000
      3      17.7657      2.00000
      4      20.4668      2.00000
      5      23.5620      0.00000
      6      26.8753      0.00000
      7      30.2745      0.00000
      8      33.2908      0.00000

 k-point    15 :       0.4167    0.0833    0.2500
  band No.  band energies     occupation 
      1       8.4037      2.00000
      2      11.2035      2.00000
      3      13.9608      2.00000
      4      16.6448      2.00000
      5      22.3119      0.00000
      6      24.5961      0.00000
      7      28.1600      0.00000
      8      29.7267      0.00000

 k-point    16 :      -0.4167    0.0833    0.2500
  band No.  band energies     occupation 
      1       5.8278      2.00000
      2      10.6913      2.00000
      3      15.3403      2.00000
      4      19.9232      2.00000
      5      20.8113      1.98961
      6      25.5222      0.00000
      7      29.3015      0.00000
      8      30.9874      0.00000

 k-point    17 :      -0.2500    0.0833    0.2500
  band No.  band energies     occupation 
      1       2.0644      2.00000
      2       7.2031      2.00000
      3      17.0587      2.00000
      4      24.1061      0.00000
      5      26.7208      0.00000
      6      29.0475      0.00000
      7      31.2321      0.00000
      8      33.3545      0.00000

 k-point    18 :      -0.0833    0.0833    0.2500
  band No.  band energies     occupation 
      1       0.4089      2.00000
      2       5.6267      2.00000
      3      15.7359      2.00000
      4      29.3416      0.00000
      5      31.6328      0.00000
      6      33.3911      0.00000
      7      34.1059      0.00000
      8      36.5746      0.00000

 k-point    19 :       0.2500    0.2500    0.2500
  band No.  band energies     occupation 
      1       7.3961      2.00000
      2      12.0981      2.00000
      3      16.2812      2.00000
      4      17.0692      2.00000
      5      20.8494      1.95709
      6      22.5343      0.00000
      7      25.0584      0.00000
      8      31.9548      0.00000

 k-point    20 :       0.4167    0.2500    0.2500
  band No.  band energies     occupation 
      1       9.9240      2.00000
      2      12.6518      2.00000
      3      14.6727      2.00000
      4      16.4817      2.00000
      5      19.0156      2.00000
      6      21.5100      0.00000
      7      26.2783      0.00000
      8      29.5228      0.00000

 k-point    21 :      -0.4167    0.2500    0.2500
  band No.  band energies     occupation 
      1       5.2997      2.00000
      2      10.2453      2.00000
      3      17.4304      2.00000
      4      19.4909      2.00000
      5      21.3329      0.00000
      6      24.4933      0.00000
      7      26.6914      0.00000
      8      33.1691      0.00000

 k-point    22 :      -0.2500    0.2500    0.2500
  band No.  band energies     occupation 
      1       2.6108      2.00000
      2       7.7216      2.00000
      3      17.3889      2.00000
      4      22.0141      0.00000
      5      25.8426      0.00000
      6      30.1930      0.00000
      7      30.2920      0.00000
      8      34.0360      0.00000

 k-point    23 :       0.4167    0.4167    0.2500
  band No.  band energies     occupation 
      1      10.1708      2.00000
      2      10.6353      2.00000
      3      15.5656      2.00000
      4      15.5793      2.00000
      5      20.1176      2.00000
      6      23.8392      0.00000
      7      26.9836      0.00000
      8      28.0802      0.00000

 k-point    24 :      -0.4167    0.4167    0.2500
  band No.  band energies     occupation 
      1       6.8724      2.00000
      2      11.3752      2.00000
      3      13.7739      2.00000
      4      18.1288      2.00000
      5      21.8525      0.00000
      6      26.5980      0.00000
      7      28.5504      0.00000
      8      32.5478      0.00000

 k-point    25 :       0.0833    0.0833    0.4167
  band No.  band energies     occupation 
      1       2.1393      2.00000
      2       3.8800      2.00000
      3      20.3882      2.00000
      4      24.9233      0.00000
      5      29.3132      0.00000
      6      29.7517      0.00000
      7      32.5439      0.00000
      8      32.9724      0.00000

 k-point    26 :       0.2500    0.0833    0.4167
  band No.  band energies     occupation 
      1       4.8416      2.00000
      2       6.5370      2.00000
      3      20.0123      2.00000
      4      21.6988      0.00000
      5      23.1489      0.00000
      6      26.2253      0.00000
      7      28.8897      0.00000
      8      30.4511      0.00000

 k-point    27 :       0.4167    0.0833    0.4167
  band No.  band energies     occupation 
      1       9.4432      2.00000
      2      10.7776      2.00000
      3      13.3467      2.00000
      4      14.6444      2.00000
      5      24.5317      0.00000
      6      26.0255      0.00000
      7      29.2767      0.00000
      8      31.1699      0.00000

 k-point    28 :      -0.4167    0.0833    0.4167
  band No.  band energies     occupation 
      1       6.9462      2.00000
      2       8.5898      2.00000
      3      16.4262      2.00000
      4      17.9870      2.00000
      5      23.9705      0.00000
      6      26.1172      0.00000
      7      28.5378      0.00000
      8      31.0158      0.00000

 k-point    29 :      -0.2500    0.0833    0.4167
  band No.  band energies     occupation 
      1       3.2288      2.00000
      2       4.9521      2.00000
      3      21.0645      0.30890
      4      24.6658      0.00000
      5      25.5868      0.00000
      6      26.4567      0.00000
      7      30.1721      0.00000
      8      31.2266      0.00000

 k-point    30 :      -0.0833    0.0833    0.4167
  band No.  band energies     occupation 
      1       1.5904      2.00000
      2       3.3397      2.00000
      3      19.9762      2.00000
      4      24.6199      0.00000
      5      32.1798      0.00000
      6      33.1683      0.00000
      7      34.1822      0.00000
      8      35.3051      0.00000

 k-point    31 :       0.2500    0.2500    0.4167
  band No.  band energies     occupation 
      1       8.4903      2.00000
      2      10.0879      2.00000
      3      17.1035      2.00000
      4      17.6202      2.00000
      5      20.1174      2.00000
      6      20.7899      1.99584
      7      28.2125      0.00000
      8      32.4413      0.00000

 k-point    32 :       0.4167    0.2500    0.4167
  band No.  band energies     occupation 
      1      10.9295      2.00000
      2      12.2053      2.00000
      3      14.5122      2.00000
      4      15.5145      2.00000
      5      18.6946      2.00000
      6      19.8116      2.00000
      7      30.2094      0.00000
      8      33.2083      0.00000

 k-point    33 :      -0.4167    0.2500    0.4167
  band No.  band energies     occupation 
      1       6.4270      2.00000
      2       8.0897      2.00000
      3      18.6651      2.00000
      4      19.9390      2.00000
      5      21.9333      0.00000
      6      23.5829      0.00000
      7      27.2448      0.00000
      8      30.7916      0.00000

 k-point    34 :      -0.2500    0.2500    0.4167
  band No.  band energies     occupation 
      1       3.7692      2.00000
      2       5.4836      2.00000
      3      20.9504      1.44920
      4      23.1155      0.00000
      5      24.1213      0.00000
      6      26.8479      0.00000
      7      31.0946      0.00000
      8      32.4546      0.00000

 k-point    35 :       0.4167    0.4167    0.4167
  band No.  band energies     occupation 
      1      11.0511      2.00000
      2      11.3482      2.00000
      3      13.7549      2.00000
      4      13.9324      2.00000
      5      21.3253      0.00000
      6      22.8372      0.00000
      7      30.1605      0.00000
      8      31.4294      0.00000

 k-point    36 :      -0.4167    0.4167    0.4167
  band No.  band energies     occupation 
      1       7.9685      2.00000
      2       9.5525      2.00000
      3      14.5514      2.00000
      4      16.0861      2.00000
      5      25.4620      0.00000
      6      28.2167      0.00000
      7      29.4446      0.00000
      8      30.7863      0.00000


--------------------------------------------------------------------------------------------------------


 soft charge-density along one line, spin component           1
         0         1         2         3         4         5         6         7         8         9
 total charge-density along one line
 
 pseudopotential strength for first ion, spin component:           1
 16.792  23.416   0.000  -0.000  -0.000   0.000  -0.000  -0.000
 23.416  32.658   0.000  -0.000  -0.000   0.000  -0.000  -0.000
  0.000   0.000   3.960  -0.000  -0.000   7.365  -0.000  -0.000
 -0.000  -0.000  -0.000   3.959  -0.000  -0.000   7.363  -0.000
 -0.000  -0.000  -0.000  -0.000   3.960  -0.000  -0.000   7.365
  0.000   0.000   7.365  -0.000  -0.000  13.710  -0.000  -0.000
 -0.000  -0.000  -0.000   7.363  -0.000  -0.000  13.707  -0.000
 -0.000  -0.000  -0.000  -0.000   7.365  -0.000  -0.000  13.710
 total augmentation occupancy for first ion, spin component:           1
 14.856  -7.927   0.000   0.000   0.000   0.000   0.000   0.000
 -7.927   4.510  -0.000   0.000  -0.000   0.000   0.000   0.000
  0.000   0.000   6.398  -0.000  -0.000  -1.973   0.000   0.000
  0.000   0.000   0.000   6.200  -0.000   0.000  -1.896  -0.000
  0.000  -0.000  -0.000  -0.000   6.398  -0.000   0.000  -1.973
  0.000   0.000  -1.973   0.000  -0.000   0.640   0.000  -0.000
  0.000   0.000   0.000  -1.896   0.000   0.000   0.614   0.000
 -0.000   0.000   0.000   0.000  -1.973   0.000   0.000   0.640


------------------------ aborting loop because EDIFF is reached ----------------------------------------


    CHARGE:  cpu time    0.0160: real time    0.0102
    FORLOC:  cpu time    0.0000: real time    0.0004
    FORNL :  cpu time    0.0380: real time    0.0237
    STRESS:  cpu time    0.2120: real time    0.1318
    FORCOR:  cpu time    0.0270: real time    0.0184
    FORHAR:  cpu time    0.0040: real time    0.0021
    MIXING:  cpu time    0.0010: real time    0.0007
    OFIELD:  cpu time    0.0000: real time    0.0000

  FORCE on cell =-STRESS in cart. coord.  units (eV):
  Direction    XX          YY          ZZ          XY          YZ          ZX
  --------------------------------------------------------------------------------------
  Alpha Z     8.94195     8.94195     8.94195
  Ewald    -111.92364  -111.92364  -115.62913    -0.00000     0.00000     0.00000
  Hartree     0.31435     0.31435     0.44378    -0.00000    -0.00000    -0.00000
  E(xc)     -31.43299   -31.43299   -31.34603    -0.00000     0.00000     0.00000
  Local      -4.57189    -4.57190    -1.62822    -0.00001    -0.00000    -0.00000
  n-local    83.24234    92.68809    86.50489    -2.98237     0.72011    -0.94253
  augment   -11.94122   -11.94122   -11.95836     0.00001    -0.00000     0.00000
  Kinetic   107.80593    62.67453    87.27456    13.23096    -0.06012    -1.20900
  Fock        0.00000     0.00000     0.00000     0.00000     0.00000     0.00000
  -------------------------------------------------------------------------------------
  Total      22.59200    22.59200    22.60344     0.00000     0.00000     0.00000
  in kB    2403.71531  2403.71531  2404.93247     0.00000     0.00000     0.00000
  external pressure =     2404.12 kB  Pullay stress =        0.00 kB


 VOLUME and BASIS-vectors are now :
 -----------------------------------------------------------------------------
  energy-cutoff  :      450.00
  volume of cell :       15.06
      direct lattice vectors                 reciprocal lattice vectors
     2.180789280 -0.000000000  0.000000000     0.458549576  0.264743721  0.000000000
    -1.090394640  1.888618917 -0.000000000     0.000000000  0.529487442 -0.000000000
    -0.000000000  0.000000000  3.656151307    -0.000000000 -0.000000000  0.273511656

  length of vectors
     2.180789280  2.180789280  3.656151307     0.529487442  0.529487442  0.273511656


 FORCES acting on ions
    electron-ion (+dipol)            ewald-force                    non-local-force                 convergence-correction
 -----------------------------------------------------------------------------------------------
   -.285E-08 0.165E-08 -.614E-14   -.109E-12 0.114E-12 -.644E-14   -.243E-16 -.278E-16 0.000E+00   -.255E-09 0.147E-09 -.138E-15
   -.260E-07 0.150E-07 -.995E-13   0.110E-12 -.112E-12 0.643E-14   0.208E-16 0.278E-16 0.000E+00   0.255E-09 -.147E-09 0.115E-15
 -----------------------------------------------------------------------------------------------
   -.289E-07 0.167E-07 -.106E-12   0.734E-15 0.224E-14 -.604E-17   -.347E-17 0.363E-27 0.000E+00   -.343E-12 0.198E-12 -.230E-16
 
 
 POSITION                                       TOTAL-FORCE (eV/Angst)
 -----------------------------------------------------------------------------------
     -0.00000      0.00000     -0.00000        -0.000000      0.000000      0.000000
     -0.00000      1.25908      1.82808         0.000000     -0.000000      0.000000
 -----------------------------------------------------------------------------------
    total drift:                               -0.000000      0.000000     -0.000000


--------------------------------------------------------------------------------------------------------



  FREE ENERGIE OF THE ION-ELECTRON SYSTEM (eV)
  ---------------------------------------------------
  free  energy   TOTEN  =        -4.09479359 eV

  energy  without entropy=       -4.09243947  energy(sigma->0) =       -4.09361653
 
 d Force = 0.0000000E+00[ 0.000E+00, 0.000E+00]  d Energy = 0.1345433E-02-0.135E-02
 d Force = 0.0000000E+00[ 0.000E+00, 0.000E+00]  d Ewald  = 0.2001414E-01-0.200E-01


--------------------------------------------------------------------------------------------------------


    POTLOK:  cpu time    0.0330: real time    0.0214


--------------------------------------------------------------------------------------------------------




--------------------------------------------------------------------------------------------------------


  
 reached required accuracy - stopping structural energy minimisation
 writing wavefunctions
     LOOP+:  cpu time    6.3250: real time    3.9551
    4ORBIT:  cpu time    0.0000: real time    0.0000

 total amount of memory used by VASP on root node    32713. kBytes
========================================================================

   base      :      30000. kBytes
   nonl-proj :        784. kBytes
   fftplans  :        523. kBytes
   grid      :        995. kBytes
   one-center:          6. kBytes
   wavefun   :        405. kBytes
 
  
  
 General timing and accounting informations for this job:
 ========================================================
  
                  Total CPU time used (sec):       37.074
                            User time (sec):       34.227
                          System time (sec):        2.848
                         Elapsed time (sec):       24.593
  
                   Maximum memory used (kb):       32544.
                   Average memory used (kb):           0.
  
                          Minor page faults:        32381
                          Major page faults:            7
                 Voluntary context switches:          790
