 running on    4 total cores
 distrk:  each k-point on    4 cores,    1 groups
 distr:  one band on    1 cores,    4 groups
 using from now: INCAR     
 vasp.5.4.1 24Jun15 (build Jul 19 2016 16:50:41) complex                        
  
 POSCAR found :  1 types and       2 ions
 LDA part: xc-table for Pade appr. of Perdew
 POSCAR, INCAR and KPOINTS ok, starting setup
 WARNING: small aliasing (wrap around) errors must be expected
 FFT: planning ...
 WAVECAR not read
 entering main loop
       N       E                     dE             d eps       ncg     rms          rms(c)
DAV:   1     0.961709924417E+01    0.96171E+01   -0.38452E+03   624   0.756E+02
DAV:   2    -0.419307388073E+01   -0.13810E+02   -0.13215E+02   872   0.863E+01
DAV:   3    -0.428546278105E+01   -0.92389E-01   -0.91686E-01   704   0.877E+00
DAV:   4    -0.428560834538E+01   -0.14556E-03   -0.14554E-03   936   0.274E-01
DAV:   5    -0.428560835313E+01   -0.77550E-08   -0.95142E-08   736   0.185E-03    0.131E+01
DAV:   6    -0.415319602838E+01    0.13241E+00   -0.70774E-03   648   0.734E-01    0.744E+00
DAV:   7    -0.407507854713E+01    0.78117E-01   -0.16319E-02   656   0.112E+00    0.402E-01
DAV:   8    -0.407446468424E+01    0.61386E-03   -0.19502E-04   920   0.128E-01    0.126E-01
DAV:   9    -0.407443747436E+01    0.27210E-04   -0.10865E-05   584   0.292E-02    0.330E-03
DAV:  10    -0.407443702094E+01    0.45342E-06   -0.63774E-07   304   0.668E-03
   1 F= -.40744370E+01 E0= -.40706153E+01  d E =-.407444E+01
 curvature:   0.00 expect dE= 0.000E+00 dE for cont linesearch  0.000E+00
 trial: gam= 0.00000 g(F)=  0.982E-50 g(S)=  0.429E-01 ort = 0.000E+00 (trialstep = 0.100E+01)
 search vector abs. value=  0.429E-01
 bond charge predicted
       N       E                     dE             d eps       ncg     rms          rms(c)
DAV:   1    -0.410452772130E+01   -0.30090E-01   -0.10361E+00   848   0.642E+00    0.688E-01
DAV:   2    -0.409563835658E+01    0.88894E-02   -0.13749E-02   608   0.105E+00    0.354E-01
DAV:   3    -0.409204524946E+01    0.35931E-02   -0.86892E-03   832   0.608E-01    0.242E-02
DAV:   4    -0.409206104693E+01   -0.15797E-04   -0.16583E-04   592   0.136E-01    0.207E-02
DAV:   5    -0.409206210717E+01   -0.10602E-05   -0.72050E-07   456   0.776E-03
   2 F= -.40920621E+01 E0= -.40896589E+01  d E =-.176251E-01
 trial-energy change:   -0.017625  1 .order   -0.017759   -0.042864    0.007346
 step:   0.8517(harm=  0.8537)  dis= 0.00000  next Energy=    -4.092607 (dE=-0.182E-01)
 bond charge predicted
       N       E                     dE             d eps       ncg     rms          rms(c)
DAV:   1    -0.409385739507E+01   -0.17963E-02   -0.23779E-02   848   0.970E-01    0.122E-01
DAV:   2    -0.409356240243E+01    0.29499E-03   -0.36522E-04   608   0.164E-01    0.625E-02
DAV:   3    -0.409344758180E+01    0.11482E-03   -0.27169E-04   808   0.107E-01    0.397E-03
DAV:   4    -0.409344815905E+01   -0.57725E-06   -0.51479E-06   320   0.239E-02
   3 F= -.40934482E+01 E0= -.40911860E+01  d E =-.190111E-01
 curvature:  -0.43 expect dE=-0.133E-02 dE for cont linesearch -0.133E-02
 ZBRENT: interpolating
 opt :   0.6710  next Energy=    -4.094491 (dE=-0.201E-01)
 bond charge predicted
       N       E                     dE             d eps       ncg     rms          rms(c)
DAV:   1    -0.409521145801E+01   -0.17639E-02   -0.35217E-02   840   0.118E+00    0.126E-01
DAV:   2    -0.409491643135E+01    0.29503E-03   -0.44488E-04   608   0.189E-01    0.652E-02
DAV:   3    -0.409479297858E+01    0.12345E-03   -0.29284E-04   808   0.111E-01    0.466E-03
DAV:   4    -0.409479359245E+01   -0.61387E-06   -0.55294E-06   328   0.248E-02
   4 F= -.40947936E+01 E0= -.40936165E+01  d E =-.203566E-01
 curvature:  -0.34 expect dE=-0.706E-06 dE for cont linesearch -0.706E-06
 trial: gam=-0.00696 g(F)=  0.466E-50 g(S)=  0.210E-05 ort = 0.300E-03 (trialstep = 0.934E+00)
 search vector abs. value=  0.203E-09
 reached required accuracy - stopping structural energy minimisation
 writing wavefunctions
