<?xml version="1.0" encoding="ISO-8859-1"?>
<modeling>
 <generator>
  <i name="program" type="string">vasp </i>
  <i name="version" type="string">5.4.1  </i>
  <i name="subversion" type="string">24Jun15 (build Jul 19 2016 16:50:41) complex                          parallel </i>
  <i name="platform" type="string">IFC91_ompi </i>
  <i name="date" type="string">2019 10 10 </i>
  <i name="time" type="string">11:10:02 </i>
 </generator>
 <incar>
  <i type="string" name="SYSTEM"> Si beta-tin</i>
  <i type="string" name="PREC">accurate</i>
  <i type="int" name="IBRION">     2</i>
  <i name="EDIFF">      0.00001000</i>
  <i name="EDIFFG">     -0.01000000</i>
  <i type="int" name="NSW">   100</i>
  <i type="int" name="ISIF">     4</i>
  <i name="ENMAX">    450.00000000</i>
  <i type="int" name="ISMEAR">     0</i>
  <i name="SIGMA">      0.10000000</i>
  <v type="int" name="KPOINT_BSE">    -1     0     0     0</v>
 </incar>
 <kpoints>
  <generation param="Monkhorst-Pack">
   <v type="int" name="divisions">       6        6        6 </v>
   <v name="usershift">      0.00000000       0.00000000       0.00000000 </v>
   <v name="genvec1">      0.16666667      -0.00000000       0.00000000 </v>
   <v name="genvec2">      0.00000000       0.16666667       0.00000000 </v>
   <v name="genvec3">      0.00000000       0.00000000       0.16666667 </v>
   <v name="shift">      0.50000000       0.50000000       0.50000000 </v>
  </generation>
  <varray name="kpointlist" >
   <v>       0.08333333       0.08333333       0.08333333 </v>
   <v>       0.25000000       0.08333333       0.08333333 </v>
   <v>       0.41666667       0.08333333       0.08333333 </v>
   <v>      -0.41666667       0.08333333       0.08333333 </v>
   <v>      -0.25000000       0.08333333       0.08333333 </v>
   <v>      -0.08333333       0.08333333       0.08333333 </v>
   <v>       0.25000000       0.25000000       0.08333333 </v>
   <v>       0.41666667       0.25000000       0.08333333 </v>
   <v>      -0.41666667       0.25000000       0.08333333 </v>
   <v>      -0.25000000       0.25000000       0.08333333 </v>
   <v>       0.41666667       0.41666667       0.08333333 </v>
   <v>      -0.41666667       0.41666667       0.08333333 </v>
   <v>       0.08333333       0.08333333       0.25000000 </v>
   <v>       0.25000000       0.08333333       0.25000000 </v>
   <v>       0.41666667       0.08333333       0.25000000 </v>
   <v>      -0.41666667       0.08333333       0.25000000 </v>
   <v>      -0.25000000       0.08333333       0.25000000 </v>
   <v>      -0.08333333       0.08333333       0.25000000 </v>
   <v>       0.25000000       0.25000000       0.25000000 </v>
   <v>       0.41666667       0.25000000       0.25000000 </v>
   <v>      -0.41666667       0.25000000       0.25000000 </v>
   <v>      -0.25000000       0.25000000       0.25000000 </v>
   <v>       0.41666667       0.41666667       0.25000000 </v>
   <v>      -0.41666667       0.41666667       0.25000000 </v>
   <v>       0.08333333       0.08333333       0.41666667 </v>
   <v>       0.25000000       0.08333333       0.41666667 </v>
   <v>       0.41666667       0.08333333       0.41666667 </v>
   <v>      -0.41666667       0.08333333       0.41666667 </v>
   <v>      -0.25000000       0.08333333       0.41666667 </v>
   <v>      -0.08333333       0.08333333       0.41666667 </v>
   <v>       0.25000000       0.25000000       0.41666667 </v>
   <v>       0.41666667       0.25000000       0.41666667 </v>
   <v>      -0.41666667       0.25000000       0.41666667 </v>
   <v>      -0.25000000       0.25000000       0.41666667 </v>
   <v>       0.41666667       0.41666667       0.41666667 </v>
   <v>      -0.41666667       0.41666667       0.41666667 </v>
  </varray>
  <varray name="weights" >
   <v>       0.01851852 </v>
   <v>       0.03703704 </v>
   <v>       0.03703704 </v>
   <v>       0.03703704 </v>
   <v>       0.03703704 </v>
   <v>       0.01851852 </v>
   <v>       0.01851852 </v>
   <v>       0.03703704 </v>
   <v>       0.03703704 </v>
   <v>       0.01851852 </v>
   <v>       0.01851852 </v>
   <v>       0.01851852 </v>
   <v>       0.01851852 </v>
   <v>       0.03703704 </v>
   <v>       0.03703704 </v>
   <v>       0.03703704 </v>
   <v>       0.03703704 </v>
   <v>       0.01851852 </v>
   <v>       0.01851852 </v>
   <v>       0.03703704 </v>
   <v>       0.03703704 </v>
   <v>       0.01851852 </v>
   <v>       0.01851852 </v>
   <v>       0.01851852 </v>
   <v>       0.01851852 </v>
   <v>       0.03703704 </v>
   <v>       0.03703704 </v>
   <v>       0.03703704 </v>
   <v>       0.03703704 </v>
   <v>       0.01851852 </v>
   <v>       0.01851852 </v>
   <v>       0.03703704 </v>
   <v>       0.03703704 </v>
   <v>       0.01851852 </v>
   <v>       0.01851852 </v>
   <v>       0.01851852 </v>
  </varray>
 </kpoints>
 <parameters>
  <separator name="general" >
   <i type="string" name="SYSTEM">Si beta-tin</i>
   <i type="logical" name="LCOMPAT"> F  </i>
  </separator>
  <separator name="electronic" >
   <i type="string" name="PREC">accura</i>
   <i name="ENMAX">    450.00000000</i>
   <i name="ENAUG">    322.06900000</i>
   <i name="EDIFF">      0.00001000</i>
   <i type="int" name="IALGO">    38</i>
   <i type="int" name="IWAVPR">    11</i>
   <i type="int" name="NBANDS">     8</i>
   <i name="NELECT">      8.00000000</i>
   <i type="int" name="TURBO">     0</i>
   <i type="int" name="IRESTART">     0</i>
   <i type="int" name="NREBOOT">     0</i>
   <i type="int" name="NMIN">     0</i>
   <i name="EREF">      0.00000000</i>
   <separator name="electronic smearing" >
    <i type="int" name="ISMEAR">     0</i>
    <i name="SIGMA">      0.10000000</i>
    <i name="KSPACING">      0.50000000</i>
    <i type="logical" name="KGAMMA"> T  </i>
   </separator>
   <separator name="electronic projectors" >
    <i type="logical" name="LREAL"> F  </i>
    <v name="ROPT">      0.00000000</v>
    <i type="int" name="LMAXPAW">  -100</i>
    <i type="int" name="LMAXMIX">     2</i>
    <i type="logical" name="NLSPLINE"> F  </i>
   </separator>
   <separator name="electronic startup" >
    <i type="int" name="ISTART">     0</i>
    <i type="int" name="ICHARG">     2</i>
    <i type="int" name="INIWAV">     1</i>
   </separator>
   <separator name="electronic spin" >
    <i type="int" name="ISPIN">     1</i>
    <i type="logical" name="LNONCOLLINEAR"> F  </i>
    <v name="MAGMOM">      1.00000000      1.00000000</v>
    <i name="NUPDOWN">     -1.00000000</i>
    <i type="logical" name="LSORBIT"> F  </i>
    <v name="SAXIS">      0.00000000      0.00000000      1.00000000</v>
    <i type="logical" name="LSPIRAL"> F  </i>
    <v name="QSPIRAL">      0.00000000      0.00000000      0.00000000</v>
    <i type="logical" name="LZEROZ"> F  </i>
   </separator>
   <separator name="electronic exchange-correlation" >
    <i type="logical" name="LASPH"> F  </i>
    <i type="logical" name="LMETAGGA"> F  </i>
   </separator>
   <separator name="electronic convergence" >
    <i type="int" name="NELM">    60</i>
    <i type="int" name="NELMDL">    -5</i>
    <i type="int" name="NELMIN">     2</i>
    <i name="ENINI">    450.00000000</i>
    <separator name="electronic convergence detail" >
     <i type="logical" name="LDIAG"> T  </i>
     <i type="logical" name="LSUBROT"> F  </i>
     <i name="WEIMIN">      0.00100000</i>
     <i name="EBREAK">      0.00000031</i>
     <i name="DEPER">      0.30000000</i>
     <i type="int" name="NRMM">     4</i>
     <i name="TIME">      0.40000000</i>
    </separator>
   </separator>
   <separator name="electronic mixer" >
    <i name="AMIX">      0.40000000</i>
    <i name="BMIX">      1.00000000</i>
    <i name="AMIN">      0.10000000</i>
    <i name="AMIX_MAG">      1.60000000</i>
    <i name="BMIX_MAG">      1.00000000</i>
    <separator name="electronic mixer details" >
     <i type="int" name="IMIX">     4</i>
     <i type="logical" name="MIXFIRST"> F  </i>
     <i type="int" name="MAXMIX">   -45</i>
     <i name="WC">    100.00000000</i>
     <i type="int" name="INIMIX">     1</i>
     <i type="int" name="MIXPRE">     1</i>
     <i type="int" name="MREMOVE">     5</i>
    </separator>
   </separator>
   <separator name="electronic dipolcorrection" >
    <i type="logical" name="LDIPOL"> F  </i>
    <i type="logical" name="LMONO"> F  </i>
    <i type="int" name="IDIPOL">     0</i>
    <i name="EPSILON">      1.00000000</i>
    <v name="DIPOL">   -100.00000000   -100.00000000   -100.00000000</v>
    <i name="EFIELD">      0.00000000</i>
   </separator>
  </separator>
  <separator name="grids" >
   <i type="int" name="NGX">    16</i>
   <i type="int" name="NGY">    16</i>
   <i type="int" name="NGZ">    28</i>
   <i type="int" name="NGXF">    32</i>
   <i type="int" name="NGYF">    32</i>
   <i type="int" name="NGZF">    56</i>
   <i type="logical" name="ADDGRID"> F  </i>
  </separator>
  <separator name="ionic" >
   <i type="int" name="NSW">   100</i>
   <i type="int" name="IBRION">     2</i>
   <i type="int" name="ISIF">     4</i>
   <i name="PSTRESS">      0.00000000</i>
   <i name="EDIFFG">     -0.01000000</i>
   <i type="int" name="NFREE">     1</i>
   <i name="POTIM">      0.50000000</i>
   <i name="SMASS">     -3.00000000</i>
   <i name="SCALEE">      1.00000000</i>
  </separator>
  <separator name="ionic md" >
   <i name="TEBEG">      0.00010000</i>
   <i name="TEEND">      0.00010000</i>
   <i type="int" name="NBLOCK">     1</i>
   <i type="int" name="KBLOCK">   100</i>
   <i type="int" name="NPACO">   256</i>
   <i name="APACO">     16.00000000</i>
  </separator>
  <separator name="symmetry" >
   <i type="int" name="ISYM">     2</i>
   <i name="SYMPREC">      0.00001000</i>
  </separator>
  <separator name="dos" >
   <i type="logical" name="LORBIT"> F  </i>
   <v name="RWIGS">     -1.00000000</v>
   <i type="int" name="NEDOS">   301</i>
   <i name="EMIN">     10.00000000</i>
   <i name="EMAX">    -10.00000000</i>
   <i name="EFERMI">      0.00000000</i>
  </separator>
  <separator name="writing" >
   <i type="int" name="NWRITE">     2</i>
   <i type="logical" name="LWAVE"> T  </i>
   <i type="logical" name="LCHARG"> T  </i>
   <i type="logical" name="LPARD"> F  </i>
   <i type="logical" name="LVTOT"> F  </i>
   <i type="logical" name="LVHAR"> F  </i>
   <i type="logical" name="LELF"> F  </i>
   <i type="logical" name="LOPTICS"> F  </i>
   <v name="STM">      0.00000000      0.00000000      0.00000000      0.00000000      0.00000000      0.00000000      0.00000000</v>
  </separator>
  <separator name="performance" >
   <i type="int" name="NPAR">     4</i>
   <i type="int" name="NSIM">     4</i>
   <i type="int" name="NBLK">    -1</i>
   <i type="logical" name="LPLANE"> T  </i>
   <i type="logical" name="LSCALAPACK"> F  </i>
   <i type="logical" name="LSCAAWARE"> F  </i>
   <i type="logical" name="LSCALU"> F  </i>
   <i type="logical" name="LASYNC"> F  </i>
   <i type="logical" name="LORBITALREAL"> F  </i>
  </separator>
  <separator name="miscellaneous" >
   <i type="int" name="IDIOT">     3</i>
   <i type="logical" name="LMUSIC"> F  </i>
   <v name="POMASS">     28.08500000</v>
   <v name="DARWINR">      0.00000000</v>
   <v name="DARWINV">      1.00000000</v>
   <i type="logical" name="LCORR"> T  </i>
  </separator>
  <i type="logical" name="GGA_COMPAT"> T  </i>
  <i type="logical" name="LBERRY"> F  </i>
  <i type="int" name="ICORELEVEL">     0</i>
  <i type="logical" name="LDAU"> F  </i>
  <i type="int" name="I_CONSTRAINED_M">     0</i>
  <separator name="electronic exchange-correlation" >
   <i type="string" name="GGA">--</i>
   <i type="int" name="VOSKOWN">     0</i>
   <i type="logical" name="LHFCALC"> F  </i>
   <i type="string" name="PRECFOCK"></i>
   <i type="logical" name="LSYMGRAD"> F  </i>
   <i type="logical" name="LHFONE"> F  </i>
   <i type="logical" name="LRHFCALC"> F  </i>
   <i type="logical" name="LTHOMAS"> F  </i>
   <i type="logical" name="LMODELHF"> F  </i>
   <i name="ENCUT4O">     -1.00000000</i>
   <i type="int" name="EXXOEP">     0</i>
   <i type="int" name="FOURORBIT">     0</i>
   <i name="AEXX">      0.00000000</i>
   <i name="HFALPHA">      0.00000000</i>
   <i name="MCALPHA">      0.00000000</i>
   <i name="ALDAX">      1.00000000</i>
   <i name="AGGAX">      1.00000000</i>
   <i name="ALDAC">      1.00000000</i>
   <i name="AGGAC">      1.00000000</i>
   <i type="int" name="NKREDX">     1</i>
   <i type="int" name="NKREDY">     1</i>
   <i type="int" name="NKREDZ">     1</i>
   <i type="logical" name="SHIFTRED"> F  </i>
   <i type="logical" name="ODDONLY"> F  </i>
   <i type="logical" name="EVENONLY"> F  </i>
   <i type="int" name="LMAXFOCK">     0</i>
   <i type="int" name="NMAXFOCKAE">     0</i>
   <i type="logical" name="LFOCKAEDFT"> F  </i>
   <i name="HFSCREEN">      0.00000000</i>
   <i name="HFSCREENC">      0.00000000</i>
   <i type="int" name="NBANDSGWLOW">     0</i>
  </separator>
  <separator name="vdW DFT" >
   <i type="logical" name="LUSE_VDW"> F  </i>
   <i name="Zab_VDW">     -0.84910000</i>
   <i name="PARAM1">      0.12340000</i>
   <i name="PARAM2">      1.00000000</i>
   <i name="PARAM3">      0.00000000</i>
  </separator>
  <separator name="model GW" >
   <i type="int" name="MODEL_GW">     0</i>
   <i name="MODEL_EPS0">      4.51755506</i>
   <i name="MODEL_ALPHA">      1.00000000</i>
  </separator>
  <separator name="linear response parameters" >
   <i type="logical" name="LEPSILON"> F  </i>
   <i type="logical" name="LRPA"> F  </i>
   <i type="logical" name="LNABLA"> F  </i>
   <i type="logical" name="LVEL"> F  </i>
   <i type="int" name="KINTER">     0</i>
   <i name="CSHIFT">      0.10000000</i>
   <i name="OMEGAMAX">     -1.00000000</i>
   <i name="DEG_THRESHOLD">      0.00200000</i>
  </separator>
  <separator name="orbital magnetization" >
   <i type="logical" name="NUCIND"> F  </i>
   <v name="MAGPOS">      0.00000000      0.00000000      0.00000000</v>
   <i type="logical" name="LNICSALL"> T  </i>
   <i type="logical" name="ORBITALMAG"> F  </i>
   <i type="logical" name="LMAGBLOCH"> F  </i>
   <i type="logical" name="LCHIMAG"> F  </i>
   <i type="logical" name="LGAUGE"> T  </i>
   <i type="int" name="MAGATOM">     0</i>
   <v name="MAGDIPOL">      0.00000000      0.00000000      0.00000000</v>
   <v name="AVECCONST">      0.00000000      0.00000000      0.00000000</v>
  </separator>
  <separator name="response functions" >
   <i type="logical" name="LADDER"> F  </i>
   <i type="logical" name="LFXC"> F  </i>
   <i type="logical" name="LHARTREE"> T  </i>
   <i type="int" name="IBSE">     0</i>
   <v type="int" name="KPOINT">    -1     0     0     0</v>
   <i type="logical" name="LTCTE"> F  </i>
   <i type="logical" name="LTETE"> F  </i>
   <i type="logical" name="LTRIPLET"> F  </i>
   <i type="logical" name="LFXCEPS"> F  </i>
   <i type="logical" name="LFXHEG"> F  </i>
   <i type="int" name="NATURALO">     0</i>
   <i type="logical" name="L2ORDER"> F  </i>
   <i type="logical" name="LUSEW"> F  </i>
   <i name="ENCUTGW">     -2.00000000</i>
   <i name="ENCUTGWSOFT">     -2.00000000</i>
   <i name="ENCUTLF">     -1.00000000</i>
   <i type="int" name="LMAXMP2">    -1</i>
   <i name="SCISSOR">      0.00000000</i>
   <i type="int" name="NOMEGA">     0</i>
   <i type="int" name="NOMEGAR">     0</i>
   <i type="int" name="NBANDSGW">    -1</i>
   <i type="int" name="NBANDSO">    -1</i>
   <i type="int" name="NBANDSV">    -1</i>
   <i type="int" name="NELM">     1</i>
   <i type="int" name="NELMHF">     1</i>
   <i type="int" name="DIM">     3</i>
   <i type="int" name="ANTIRES">     0</i>
   <i name="OMEGAMAX">    -30.00000000</i>
   <i name="OMEGAMIN">    -30.00000000</i>
   <i name="OMEGATL">   -200.00000000</i>
   <i type="int" name="OMEGAGRID">     0</i>
   <i name="CSHIFT">     -0.10000000</i>
   <i type="logical" name="SELFENERGY"> F  </i>
   <i type="logical" name="LSPECTRAL"> F  </i>
   <i type="logical" name="LSPECTRALGW"> F  </i>
   <i type="logical" name="LSINGLES"> F  </i>
   <i type="logical" name="LFERMIGW"> F  </i>
   <i type="logical" name="ODDONLYGW"> F  </i>
   <i type="logical" name="EVENONLYGW"> F  </i>
   <i type="int" name="NKREDLFX">     1</i>
   <i type="int" name="NKREDLFY">     1</i>
   <i type="int" name="NKREDLFZ">     1</i>
   <i type="int" name="MAXMEM">  1800</i>
   <i type="int" name="TELESCOPE">     0</i>
   <i type="int" name="TAUPAR">     1</i>
   <i type="int" name="OMEGAPAR">    -1</i>
   <i name="LAMBDA">      1.00000000</i>
  </separator>
  <separator name="External order field" >
   <i name="OFIELD_KAPPA">      0.00000000</i>
   <v name="OFIELD_K">      0.00000000      0.00000000      0.00000000</v>
   <i name="OFIELD_Q6_NEAR">      0.00000000</i>
   <i name="OFIELD_Q6_FAR">      0.00000000</i>
   <i name="OFIELD_A">      0.00000000</i>
  </separator>
 </parameters>
 <atominfo>
  <atoms>       2 </atoms>
  <types>       1 </types>
  <array name="atoms" >
   <dimension dim="1">ion</dimension>
   <field type="string">element</field>
   <field type="int">atomtype</field>
   <set>
    <rc><c> S</c><c>   1</c></rc>
    <rc><c> S</c><c>   1</c></rc>
   </set>
  </array>
  <array name="atomtypes" >
   <dimension dim="1">type</dimension>
   <field type="int">atomspertype</field>
   <field type="string">element</field>
   <field>mass</field>
   <field>valence</field>
   <field type="string">pseudopotential</field>
   <set>
    <rc><c>   2</c><c> S</c><c>     28.08500000</c><c>      4.00000000</c><c>  PAW_PBE Si 05Jan2001                  </c></rc>
   </set>
  </array>
 </atominfo>
 <structure name="initialpos" >
  <crystal>
   <varray name="basis" >
    <v>       2.20000000       0.00000000       0.00000000 </v>
    <v>      -1.10000000       1.90525589       0.00000000 </v>
    <v>       0.00000000       0.00000000       3.59257800 </v>
   </varray>
   <i name="volume">     15.05851686 </i>
   <varray name="rec_basis" >
    <v>       0.45454545       0.26243194       0.00000000 </v>
    <v>       0.00000000       0.52486388       0.00000000 </v>
    <v>       0.00000000       0.00000000       0.27835165 </v>
   </varray>
  </crystal>
  <varray name="positions" >
   <v>       0.00000000       0.00000000       0.00000000 </v>
   <v>       0.33333333       0.66666667       0.50000000 </v>
  </varray>
 </structure>
 <calculation>
  <scstep>
   <time name="dav">    1.32    0.85</time>
   <time name="total">    1.36    0.88</time>
   <energy>
    <i name="alphaZ">      8.94195122 </i>
    <i name="ewald">   -339.50622008 </i>
    <i name="hartreedc">     -0.37485983 </i>
    <i name="XCdc">    -13.63929453 </i>
    <i name="pawpsdc">    176.24759923 </i>
    <i name="pawaedc">   -141.06103558 </i>
    <i name="eentropy">     -0.00295049 </i>
    <i name="bandstr">    112.87998182 </i>
    <i name="atom">    206.13192747 </i>
    <i name="e_fr_energy">      9.61709924 </i>
    <i name="e_wo_entrp">      9.62004973 </i>
    <i name="e_0_energy">      9.61857449 </i>
   </energy>
  </scstep>
  <scstep>
   <time name="dav">    1.54    0.97</time>
   <time name="total">    1.55    0.98</time>
   <energy>
    <i name="e_fr_energy">     -4.19307388 </i>
    <i name="e_wo_entrp">     -4.18717453 </i>
    <i name="e_0_energy">     -4.19012421 </i>
   </energy>
  </scstep>
  <scstep>
   <time name="dav">    1.82    1.17</time>
   <time name="total">    1.84    1.18</time>
   <energy>
    <i name="e_fr_energy">     -4.28546278 </i>
    <i name="e_wo_entrp">     -4.27805517 </i>
    <i name="e_0_energy">     -4.28175898 </i>
   </energy>
  </scstep>
  <scstep>
   <time name="dav">    2.21    1.45</time>
   <time name="total">    2.22    1.45</time>
   <energy>
    <i name="e_fr_energy">     -4.28560835 </i>
    <i name="e_wo_entrp">     -4.27819563 </i>
    <i name="e_0_energy">     -4.28190199 </i>
   </energy>
  </scstep>
  <scstep>
   <time name="dav">    1.39    0.87</time>
   <time name="total">    1.42    0.89</time>
   <energy>
    <i name="e_fr_energy">     -4.28560835 </i>
    <i name="e_wo_entrp">     -4.27819564 </i>
    <i name="e_0_energy">     -4.28190199 </i>
   </energy>
  </scstep>
  <scstep>
   <time name="dav">    1.23    0.75</time>
   <time name="total">    1.30    0.80</time>
   <energy>
    <i name="e_fr_energy">     -4.15319603 </i>
    <i name="e_wo_entrp">     -4.14567767 </i>
    <i name="e_0_energy">     -4.14943685 </i>
   </energy>
  </scstep>
  <scstep>
   <time name="dav">    1.67    1.04</time>
   <time name="total">    1.72    1.08</time>
   <energy>
    <i name="e_fr_energy">     -4.07507855 </i>
    <i name="e_wo_entrp">     -4.06744698 </i>
    <i name="e_0_energy">     -4.07126276 </i>
   </energy>
  </scstep>
  <scstep>
   <time name="dav">    1.75    1.10</time>
   <time name="total">    1.81    1.13</time>
   <energy>
    <i name="e_fr_energy">     -4.07446468 </i>
    <i name="e_wo_entrp">     -4.06682296 </i>
    <i name="e_0_energy">     -4.07064382 </i>
   </energy>
  </scstep>
  <scstep>
   <time name="dav">    1.57    0.98</time>
   <time name="total">    1.64    1.02</time>
   <energy>
    <i name="e_fr_energy">     -4.07443747 </i>
    <i name="e_wo_entrp">     -4.06679376 </i>
    <i name="e_0_energy">     -4.07061562 </i>
   </energy>
  </scstep>
  <scstep>
   <time name="dav">    0.66    0.41</time>
   <time name="total">    0.70    0.44</time>
   <energy>
    <i name="alphaZ">      8.94195122 </i>
    <i name="ewald">   -339.50622008 </i>
    <i name="hartreedc">     -1.06435833 </i>
    <i name="XCdc">    -12.98212387 </i>
    <i name="pawpsdc">   3517.59938055 </i>
    <i name="pawaedc">  -3483.04269545 </i>
    <i name="eentropy">     -0.00764337 </i>
    <i name="bandstr">     99.85534484 </i>
    <i name="atom">    206.13192747 </i>
    <i name="e_fr_energy">     -4.07443702 </i>
    <i name="e_wo_entrp">     -4.06679365 </i>
    <i name="e_0_energy">     -4.07061534 </i>
   </energy>
  </scstep>
  <structure>
   <crystal>
    <varray name="basis" >
     <v>       2.20000000       0.00000000       0.00000000 </v>
     <v>      -1.10000000       1.90525589       0.00000000 </v>
     <v>       0.00000000       0.00000000       3.59257800 </v>
    </varray>
    <i name="volume">     15.05851686 </i>
    <varray name="rec_basis" >
     <v>       0.45454545       0.26243194       0.00000000 </v>
     <v>       0.00000000       0.52486388       0.00000000 </v>
     <v>       0.00000000       0.00000000       0.27835165 </v>
    </varray>
   </crystal>
   <varray name="positions" >
    <v>       0.00000000       0.00000000       0.00000000 </v>
    <v>       0.33333333       0.66666667       0.50000000 </v>
   </varray>
  </structure>
  <varray name="forces" >
   <v>      -0.00000000       0.00000000       0.00000000 </v>
   <v>       0.00000000      -0.00000000       0.00000000 </v>
  </varray>
  <varray name="stress" >
   <v>    2353.18878816      -0.00000000       0.00000000 </v>
   <v>       0.00000000    2353.18878816       0.00000000 </v>
   <v>      -0.00000000       0.00000000    2526.89766008 </v>
  </varray>
  <energy>
   <i name="e_fr_energy">     -4.07443702 </i>
   <i name="e_wo_entrp">     -4.07061534 </i>
   <i name="e_0_energy">     -0.00764337 </i>
  </energy>
  <time name="totalsc">   16.19   10.29</time>
 </calculation>
 <calculation>
  <scstep>
   <time name="dav">    2.09    1.29</time>
   <time name="total">    2.13    1.32</time>
   <energy>
    <i name="alphaZ">      8.94195122 </i>
    <i name="ewald">   -339.43593471 </i>
    <i name="hartreedc">     -1.06319881 </i>
    <i name="XCdc">    -12.98247683 </i>
    <i name="pawpsdc">   3517.19283829 </i>
    <i name="pawaedc">  -3482.63619426 </i>
    <i name="eentropy">     -0.00406730 </i>
    <i name="bandstr">     99.75062720 </i>
    <i name="atom">    206.13192747 </i>
    <i name="e_fr_energy">     -4.10452772 </i>
    <i name="e_wo_entrp">     -4.10046042 </i>
    <i name="e_0_energy">     -4.10249407 </i>
   </energy>
  </scstep>
  <scstep>
   <time name="dav">    1.25    0.79</time>
   <time name="total">    1.29    0.82</time>
   <energy>
    <i name="e_fr_energy">     -4.09563836 </i>
    <i name="e_wo_entrp">     -4.09123754 </i>
    <i name="e_0_energy">     -4.09343795 </i>
   </energy>
  </scstep>
  <scstep>
   <time name="dav">    1.99    1.27</time>
   <time name="total">    2.04    1.31</time>
   <energy>
    <i name="e_fr_energy">     -4.09204525 </i>
    <i name="e_wo_entrp">     -4.08723572 </i>
    <i name="e_0_energy">     -4.08964048 </i>
   </energy>
  </scstep>
  <scstep>
   <time name="dav">    1.16    0.71</time>
   <time name="total">    1.22    0.75</time>
   <energy>
    <i name="e_fr_energy">     -4.09206105 </i>
    <i name="e_wo_entrp">     -4.08725677 </i>
    <i name="e_0_energy">     -4.08965891 </i>
   </energy>
  </scstep>
  <scstep>
   <time name="dav">    0.89    0.53</time>
   <time name="total">    0.92    0.55</time>
   <energy>
    <i name="alphaZ">      8.94195122 </i>
    <i name="ewald">   -339.43593471 </i>
    <i name="hartreedc">     -1.08241365 </i>
    <i name="XCdc">    -12.97653826 </i>
    <i name="pawpsdc">   3532.31480438 </i>
    <i name="pawaedc">  -3497.76207014 </i>
    <i name="eentropy">     -0.00480640 </i>
    <i name="bandstr">     99.78101798 </i>
    <i name="atom">    206.13192747 </i>
    <i name="e_fr_energy">     -4.09206211 </i>
    <i name="e_wo_entrp">     -4.08725570 </i>
    <i name="e_0_energy">     -4.08965891 </i>
   </energy>
  </scstep>
  <structure>
   <crystal>
    <varray name="basis" >
     <v>       2.17149105      -0.00000000       0.00000000 </v>
     <v>      -1.08574553       1.88056642      -0.00000000 </v>
     <v>      -0.00000000       0.00000000       3.68752929 </v>
    </varray>
    <i name="volume">     15.05851686 </i>
    <varray name="rec_basis" >
     <v>       0.46051306       0.26587734       0.00000000 </v>
     <v>       0.00000000       0.53175468      -0.00000000 </v>
     <v>      -0.00000000      -0.00000000       0.27118429 </v>
    </varray>
   </crystal>
   <varray name="positions" >
    <v>      -0.00000000       0.00000000       0.00000000 </v>
    <v>       0.33333333       0.66666667       0.50000000 </v>
   </varray>
  </structure>
  <varray name="forces" >
   <v>      -0.00000000      -0.00000000      -0.00000000 </v>
   <v>       0.00000000       0.00000000       0.00000000 </v>
  </varray>
  <varray name="stress" >
   <v>    2414.59451937       0.00000000       0.00000000 </v>
   <v>       0.00000000    2414.59451937       0.00000000 </v>
   <v>      -0.00000000       0.00000000    2384.82513318 </v>
  </varray>
  <energy>
   <i name="e_fr_energy">     -4.09206211 </i>
   <i name="e_wo_entrp">     -4.08965891 </i>
   <i name="e_0_energy">     -0.00480640 </i>
  </energy>
  <time name="totalsc">    8.27    5.13</time>
 </calculation>
 <calculation>
  <scstep>
   <time name="dav">    1.35    0.81</time>
   <time name="total">    1.41    0.85</time>
   <energy>
    <i name="alphaZ">      8.94195122 </i>
    <i name="ewald">   -339.45627964 </i>
    <i name="hartreedc">     -1.08316502 </i>
    <i name="XCdc">    -12.97636977 </i>
    <i name="pawpsdc">   3532.84854199 </i>
    <i name="pawaedc">  -3498.29568907 </i>
    <i name="eentropy">     -0.00449625 </i>
    <i name="bandstr">     99.79972167 </i>
    <i name="atom">    206.13192747 </i>
    <i name="e_fr_energy">     -4.09385740 </i>
    <i name="e_wo_entrp">     -4.08936114 </i>
    <i name="e_0_energy">     -4.09160927 </i>
   </energy>
  </scstep>
  <scstep>
   <time name="dav">    1.15    0.69</time>
   <time name="total">    1.20    0.72</time>
   <energy>
    <i name="e_fr_energy">     -4.09356240 </i>
    <i name="e_wo_entrp">     -4.08905246 </i>
    <i name="e_0_energy">     -4.09130743 </i>
   </energy>
  </scstep>
  <scstep>
   <time name="dav">    1.69    1.01</time>
   <time name="total">    1.75    1.06</time>
   <energy>
    <i name="e_fr_energy">     -4.09344758 </i>
    <i name="e_wo_entrp">     -4.08892350 </i>
    <i name="e_0_energy">     -4.09118554 </i>
   </energy>
  </scstep>
  <scstep>
   <time name="dav">    0.70    0.42</time>
   <time name="total">    0.74    0.44</time>
   <energy>
    <i name="alphaZ">      8.94195122 </i>
    <i name="ewald">   -339.45627964 </i>
    <i name="hartreedc">     -1.07641639 </i>
    <i name="XCdc">    -12.97792744 </i>
    <i name="pawpsdc">   3529.66512340 </i>
    <i name="pawaedc">  -3495.11144942 </i>
    <i name="eentropy">     -0.00452428 </i>
    <i name="bandstr">     99.79414691 </i>
    <i name="atom">    206.13192747 </i>
    <i name="e_fr_energy">     -4.09344816 </i>
    <i name="e_wo_entrp">     -4.08892388 </i>
    <i name="e_0_energy">     -4.09118602 </i>
   </energy>
  </scstep>
  <structure>
   <crystal>
    <varray name="basis" >
     <v>       2.17567373      -0.00000000       0.00000000 </v>
     <v>      -1.08783686       1.88418872      -0.00000000 </v>
     <v>      -0.00000000       0.00000000       3.67336458 </v>
    </varray>
    <i name="volume">     15.05851686 </i>
    <varray name="rec_basis" >
     <v>       0.45962774       0.26536620       0.00000000 </v>
     <v>       0.00000000       0.53073240      -0.00000000 </v>
     <v>      -0.00000000      -0.00000000       0.27222999 </v>
    </varray>
   </crystal>
   <varray name="positions" >
    <v>      -0.00000000       0.00000000      -0.00000000 </v>
    <v>       0.33333333       0.66666667       0.50000000 </v>
   </varray>
  </structure>
  <varray name="forces" >
   <v>       0.00000000      -0.00000000      -0.00000000 </v>
   <v>      -0.00000000       0.00000000       0.00000000 </v>
  </varray>
  <varray name="stress" >
   <v>    2421.83654478       0.00000000      -0.00000000 </v>
   <v>       0.00000000    2421.83654478      -0.00000000 </v>
   <v>       0.00000000       0.00000000    2375.06994428 </v>
  </varray>
  <energy>
   <i name="e_fr_energy">     -4.09344816 </i>
   <i name="e_wo_entrp">     -4.09118602 </i>
   <i name="e_0_energy">     -0.00452428 </i>
  </energy>
  <time name="totalsc">    5.61    3.38</time>
 </calculation>
 <calculation>
  <scstep>
   <time name="dav">    1.68    1.05</time>
   <time name="total">    1.74    1.08</time>
   <energy>
    <i name="alphaZ">      8.94195122 </i>
    <i name="ewald">   -339.47629377 </i>
    <i name="hartreedc">     -1.07698690 </i>
    <i name="XCdc">    -12.97787402 </i>
    <i name="pawpsdc">   3529.38314531 </i>
    <i name="pawaedc">  -3494.82949486 </i>
    <i name="eentropy">     -0.00235378 </i>
    <i name="bandstr">     99.81076787 </i>
    <i name="atom">    206.13192747 </i>
    <i name="e_fr_energy">     -4.09521146 </i>
    <i name="e_wo_entrp">     -4.09285768 </i>
    <i name="e_0_energy">     -4.09403457 </i>
   </energy>
  </scstep>
  <scstep>
   <time name="dav">    1.28    0.80</time>
   <time name="total">    1.33    0.83</time>
   <energy>
    <i name="e_fr_energy">     -4.09491643 </i>
    <i name="e_wo_entrp">     -4.09256315 </i>
    <i name="e_0_energy">     -4.09373979 </i>
   </energy>
  </scstep>
  <scstep>
   <time name="dav">    1.56    0.96</time>
   <time name="total">    1.62    1.00</time>
   <energy>
    <i name="e_fr_energy">     -4.09479298 </i>
    <i name="e_wo_entrp">     -4.09243900 </i>
    <i name="e_0_energy">     -4.09361599 </i>
   </energy>
  </scstep>
  <scstep>
   <time name="dav">    1.18    0.75</time>
   <time name="total">    1.22    0.77</time>
   <energy>
    <i name="alphaZ">      8.94195122 </i>
    <i name="ewald">   -339.47629377 </i>
    <i name="hartreedc">     -1.07262409 </i>
    <i name="XCdc">    -12.97871500 </i>
    <i name="pawpsdc">   3525.67264897 </i>
    <i name="pawaedc">  -3491.11741052 </i>
    <i name="eentropy">     -0.00235412 </i>
    <i name="bandstr">     99.80607624 </i>
    <i name="atom">    206.13192747 </i>
    <i name="e_fr_energy">     -4.09479359 </i>
    <i name="e_wo_entrp">     -4.09243947 </i>
    <i name="e_0_energy">     -4.09361653 </i>
   </energy>
  </scstep>
  <structure>
   <crystal>
    <varray name="basis" >
     <v>       2.18078928      -0.00000000       0.00000000 </v>
     <v>      -1.09039464       1.88861892      -0.00000000 </v>
     <v>      -0.00000000       0.00000000       3.65615131 </v>
    </varray>
    <i name="volume">     15.05851686 </i>
    <varray name="rec_basis" >
     <v>       0.45854958       0.26474372       0.00000000 </v>
     <v>       0.00000000       0.52948744      -0.00000000 </v>
     <v>      -0.00000000      -0.00000000       0.27351166 </v>
    </varray>
   </crystal>
   <varray name="positions" >
    <v>      -0.00000000       0.00000000      -0.00000000 </v>
    <v>       0.33333333       0.66666667       0.50000000 </v>
   </varray>
  </structure>
  <varray name="forces" >
   <v>      -0.00000000       0.00000000       0.00000000 </v>
   <v>       0.00000000      -0.00000000       0.00000000 </v>
  </varray>
  <varray name="stress" >
   <v>    2403.71531495       0.00000000       0.00000000 </v>
   <v>       0.00000000    2403.71531495       0.00000000 </v>
   <v>      -0.00000000       0.00000000    2404.93246892 </v>
  </varray>
  <energy>
   <i name="e_fr_energy">     -4.09479359 </i>
   <i name="e_wo_entrp">     -4.09361653 </i>
   <i name="e_0_energy">     -0.00235412 </i>
  </energy>
  <time name="totalsc">    6.33    3.96</time>
  <eigenvalues>
   <array>
    <dimension dim="1">band</dimension>
    <dimension dim="2">kpoint</dimension>
    <dimension dim="3">spin</dimension>
    <field>eigene</field>
    <field>occ</field>
    <set>
     <set comment="spin 1">
      <set comment="kpoint 1">
       <r>    0.3710    1.0000 </r>
       <r>    8.8657    1.0000 </r>
       <r>   12.5234    1.0000 </r>
       <r>   27.8923    0.0000 </r>
       <r>   29.2133    0.0000 </r>
       <r>   34.7372    0.0000 </r>
       <r>   35.2387    0.0000 </r>
       <r>   35.8883    0.0000 </r>
      </set>
      <set comment="kpoint 2">
       <r>    3.1169    1.0000 </r>
       <r>   11.3757    1.0000 </r>
       <r>   14.6913    1.0000 </r>
       <r>   19.5434    1.0000 </r>
       <r>   24.6850    0.0000 </r>
       <r>   27.4003    0.0000 </r>
       <r>   30.5748    0.0000 </r>
       <r>   33.2399    0.0000 </r>
      </set>
      <set comment="kpoint 3">
       <r>    7.8658    1.0000 </r>
       <r>   10.8885    1.0000 </r>
       <r>   16.1840    1.0000 </r>
       <r>   19.0258    1.0000 </r>
       <r>   19.6069    1.0000 </r>
       <r>   21.8919    0.0000 </r>
       <r>   26.7832    0.0000 </r>
       <r>   31.6722    0.0000 </r>
      </set>
      <set comment="kpoint 4">
       <r>    5.2626    1.0000 </r>
       <r>   12.9774    1.0000 </r>
       <r>   14.6641    1.0000 </r>
       <r>   17.8672    1.0000 </r>
       <r>   22.1824    0.0000 </r>
       <r>   24.2577    0.0000 </r>
       <r>   28.1138    0.0000 </r>
       <r>   32.1907    0.0000 </r>
      </set>
      <set comment="kpoint 5">
       <r>    1.4777    1.0000 </r>
       <r>    9.8827    1.0000 </r>
       <r>   13.4712    1.0000 </r>
       <r>   23.6334    0.0000 </r>
       <r>   26.7048    0.0000 </r>
       <r>   31.3926    0.0000 </r>
       <r>   33.3606    0.0000 </r>
       <r>   35.0123    0.0000 </r>
      </set>
      <set comment="kpoint 6">
       <r>   -0.1865    1.0000 </r>
       <r>    8.3535    1.0000 </r>
       <r>   12.0304    1.0000 </r>
       <r>   30.6800    0.0000 </r>
       <r>   32.9874    0.0000 </r>
       <r>   33.8867    0.0000 </r>
       <r>   35.3308    0.0000 </r>
       <r>   37.4745    0.0000 </r>
      </set>
      <set comment="kpoint 7">
       <r>    6.8418    1.0000 </r>
       <r>   14.1961    1.0000 </r>
       <r>   15.8117    1.0000 </r>
       <r>   16.2623    1.0000 </r>
       <r>   20.1907    1.0000 </r>
       <r>   24.3281    0.0000 </r>
       <r>   25.2568    0.0000 </r>
       <r>   28.6040    0.0000 </r>
      </set>
      <set comment="kpoint 8">
       <r>    9.4003    1.0000 </r>
       <r>   12.3648    1.0000 </r>
       <r>   15.0410    1.0000 </r>
       <r>   17.9893    1.0000 </r>
       <r>   20.3497    1.0000 </r>
       <r>   21.9611    0.0000 </r>
       <r>   24.5975    0.0000 </r>
       <r>   26.7181    0.0000 </r>
      </set>
      <set comment="kpoint 9">
       <r>    4.7308    1.0000 </r>
       <r>   12.7945    1.0000 </r>
       <r>   15.5510    1.0000 </r>
       <r>   18.0756    1.0000 </r>
       <r>   21.2417    0.0002 </r>
       <r>   25.7362    0.0000 </r>
       <r>   28.5465    0.0000 </r>
       <r>   30.2024    0.0000 </r>
      </set>
      <set comment="kpoint 10">
       <r>    2.0268    1.0000 </r>
       <r>   10.3851    1.0000 </r>
       <r>   13.9059    1.0000 </r>
       <r>   21.4087    0.0000 </r>
       <r>   27.9358    0.0000 </r>
       <r>   29.7443    0.0000 </r>
       <r>   30.2648    0.0000 </r>
       <r>   34.9568    0.0000 </r>
      </set>
      <set comment="kpoint 11">
       <r>    9.6692    1.0000 </r>
       <r>   10.1598    1.0000 </r>
       <r>   17.3436    1.0000 </r>
       <r>   18.1607    1.0000 </r>
       <r>   19.1145    1.0000 </r>
       <r>   21.3845    0.0000 </r>
       <r>   25.8748    0.0000 </r>
       <r>   27.8974    0.0000 </r>
      </set>
      <set comment="kpoint 12">
       <r>    6.3160    1.0000 </r>
       <r>   12.1597    1.0000 </r>
       <r>   14.8369    1.0000 </r>
       <r>   18.5393    1.0000 </r>
       <r>   20.6769    1.0000 </r>
       <r>   23.6938    0.0000 </r>
       <r>   28.1044    0.0000 </r>
       <r>   32.5173    0.0000 </r>
      </set>
      <set comment="kpoint 13">
       <r>    0.9635    1.0000 </r>
       <r>    6.1552    1.0000 </r>
       <r>   16.1974    1.0000 </r>
       <r>   28.0760    0.0000 </r>
       <r>   29.5106    0.0000 </r>
       <r>   30.3206    0.0000 </r>
       <r>   33.6308    0.0000 </r>
       <r>   34.3745    0.0000 </r>
      </set>
      <set comment="kpoint 14">
       <r>    3.6949    1.0000 </r>
       <r>    8.7467    1.0000 </r>
       <r>   17.7657    1.0000 </r>
       <r>   20.4668    1.0000 </r>
       <r>   23.5620    0.0000 </r>
       <r>   26.8753    0.0000 </r>
       <r>   30.2745    0.0000 </r>
       <r>   33.2908    0.0000 </r>
      </set>
      <set comment="kpoint 15">
       <r>    8.4037    1.0000 </r>
       <r>   11.2035    1.0000 </r>
       <r>   13.9608    1.0000 </r>
       <r>   16.6448    1.0000 </r>
       <r>   22.3119    0.0000 </r>
       <r>   24.5961    0.0000 </r>
       <r>   28.1600    0.0000 </r>
       <r>   29.7267    0.0000 </r>
      </set>
      <set comment="kpoint 16">
       <r>    5.8278    1.0000 </r>
       <r>   10.6913    1.0000 </r>
       <r>   15.3403    1.0000 </r>
       <r>   19.9232    1.0000 </r>
       <r>   20.8113    0.9948 </r>
       <r>   25.5222    0.0000 </r>
       <r>   29.3015    0.0000 </r>
       <r>   30.9874    0.0000 </r>
      </set>
      <set comment="kpoint 17">
       <r>    2.0644    1.0000 </r>
       <r>    7.2031    1.0000 </r>
       <r>   17.0587    1.0000 </r>
       <r>   24.1061    0.0000 </r>
       <r>   26.7208    0.0000 </r>
       <r>   29.0475    0.0000 </r>
       <r>   31.2321    0.0000 </r>
       <r>   33.3545    0.0000 </r>
      </set>
      <set comment="kpoint 18">
       <r>    0.4089    1.0000 </r>
       <r>    5.6267    1.0000 </r>
       <r>   15.7359    1.0000 </r>
       <r>   29.3416    0.0000 </r>
       <r>   31.6328    0.0000 </r>
       <r>   33.3911    0.0000 </r>
       <r>   34.1059    0.0000 </r>
       <r>   36.5746    0.0000 </r>
      </set>
      <set comment="kpoint 19">
       <r>    7.3961    1.0000 </r>
       <r>   12.0981    1.0000 </r>
       <r>   16.2812    1.0000 </r>
       <r>   17.0692    1.0000 </r>
       <r>   20.8494    0.9785 </r>
       <r>   22.5343    0.0000 </r>
       <r>   25.0584    0.0000 </r>
       <r>   31.9548    0.0000 </r>
      </set>
      <set comment="kpoint 20">
       <r>    9.9240    1.0000 </r>
       <r>   12.6518    1.0000 </r>
       <r>   14.6727    1.0000 </r>
       <r>   16.4817    1.0000 </r>
       <r>   19.0156    1.0000 </r>
       <r>   21.5100    0.0000 </r>
       <r>   26.2783    0.0000 </r>
       <r>   29.5228    0.0000 </r>
      </set>
      <set comment="kpoint 21">
       <r>    5.2997    1.0000 </r>
       <r>   10.2453    1.0000 </r>
       <r>   17.4304    1.0000 </r>
       <r>   19.4909    1.0000 </r>
       <r>   21.3329    0.0000 </r>
       <r>   24.4933    0.0000 </r>
       <r>   26.6914    0.0000 </r>
       <r>   33.1691    0.0000 </r>
      </set>
      <set comment="kpoint 22">
       <r>    2.6108    1.0000 </r>
       <r>    7.7216    1.0000 </r>
       <r>   17.3889    1.0000 </r>
       <r>   22.0141    0.0000 </r>
       <r>   25.8426    0.0000 </r>
       <r>   30.1930    0.0000 </r>
       <r>   30.2920    0.0000 </r>
       <r>   34.0360    0.0000 </r>
      </set>
      <set comment="kpoint 23">
       <r>   10.1708    1.0000 </r>
       <r>   10.6353    1.0000 </r>
       <r>   15.5656    1.0000 </r>
       <r>   15.5793    1.0000 </r>
       <r>   20.1176    1.0000 </r>
       <r>   23.8392    0.0000 </r>
       <r>   26.9836    0.0000 </r>
       <r>   28.0802    0.0000 </r>
      </set>
      <set comment="kpoint 24">
       <r>    6.8724    1.0000 </r>
       <r>   11.3752    1.0000 </r>
       <r>   13.7739    1.0000 </r>
       <r>   18.1288    1.0000 </r>
       <r>   21.8525    0.0000 </r>
       <r>   26.5980    0.0000 </r>
       <r>   28.5504    0.0000 </r>
       <r>   32.5478    0.0000 </r>
      </set>
      <set comment="kpoint 25">
       <r>    2.1393    1.0000 </r>
       <r>    3.8800    1.0000 </r>
       <r>   20.3882    1.0000 </r>
       <r>   24.9233    0.0000 </r>
       <r>   29.3132    0.0000 </r>
       <r>   29.7517    0.0000 </r>
       <r>   32.5439    0.0000 </r>
       <r>   32.9724    0.0000 </r>
      </set>
      <set comment="kpoint 26">
       <r>    4.8416    1.0000 </r>
       <r>    6.5370    1.0000 </r>
       <r>   20.0123    1.0000 </r>
       <r>   21.6988    0.0000 </r>
       <r>   23.1489    0.0000 </r>
       <r>   26.2253    0.0000 </r>
       <r>   28.8897    0.0000 </r>
       <r>   30.4511    0.0000 </r>
      </set>
      <set comment="kpoint 27">
       <r>    9.4432    1.0000 </r>
       <r>   10.7776    1.0000 </r>
       <r>   13.3467    1.0000 </r>
       <r>   14.6444    1.0000 </r>
       <r>   24.5317    0.0000 </r>
       <r>   26.0255    0.0000 </r>
       <r>   29.2767    0.0000 </r>
       <r>   31.1699    0.0000 </r>
      </set>
      <set comment="kpoint 28">
       <r>    6.9462    1.0000 </r>
       <r>    8.5898    1.0000 </r>
       <r>   16.4262    1.0000 </r>
       <r>   17.9870    1.0000 </r>
       <r>   23.9705    0.0000 </r>
       <r>   26.1172    0.0000 </r>
       <r>   28.5378    0.0000 </r>
       <r>   31.0158    0.0000 </r>
      </set>
      <set comment="kpoint 29">
       <r>    3.2288    1.0000 </r>
       <r>    4.9521    1.0000 </r>
       <r>   21.0645    0.1545 </r>
       <r>   24.6658    0.0000 </r>
       <r>   25.5868    0.0000 </r>
       <r>   26.4567    0.0000 </r>
       <r>   30.1721    0.0000 </r>
       <r>   31.2266    0.0000 </r>
      </set>
      <set comment="kpoint 30">
       <r>    1.5904    1.0000 </r>
       <r>    3.3397    1.0000 </r>
       <r>   19.9762    1.0000 </r>
       <r>   24.6199    0.0000 </r>
       <r>   32.1798    0.0000 </r>
       <r>   33.1683    0.0000 </r>
       <r>   34.1822    0.0000 </r>
       <r>   35.3051    0.0000 </r>
      </set>
      <set comment="kpoint 31">
       <r>    8.4903    1.0000 </r>
       <r>   10.0879    1.0000 </r>
       <r>   17.1035    1.0000 </r>
       <r>   17.6202    1.0000 </r>
       <r>   20.1174    1.0000 </r>
       <r>   20.7899    0.9979 </r>
       <r>   28.2125    0.0000 </r>
       <r>   32.4413    0.0000 </r>
      </set>
      <set comment="kpoint 32">
       <r>   10.9295    1.0000 </r>
       <r>   12.2053    1.0000 </r>
       <r>   14.5122    1.0000 </r>
       <r>   15.5145    1.0000 </r>
       <r>   18.6946    1.0000 </r>
       <r>   19.8116    1.0000 </r>
       <r>   30.2094    0.0000 </r>
       <r>   33.2083    0.0000 </r>
      </set>
      <set comment="kpoint 33">
       <r>    6.4270    1.0000 </r>
       <r>    8.0897    1.0000 </r>
       <r>   18.6651    1.0000 </r>
       <r>   19.9390    1.0000 </r>
       <r>   21.9333    0.0000 </r>
       <r>   23.5829    0.0000 </r>
       <r>   27.2448    0.0000 </r>
       <r>   30.7916    0.0000 </r>
      </set>
      <set comment="kpoint 34">
       <r>    3.7692    1.0000 </r>
       <r>    5.4836    1.0000 </r>
       <r>   20.9504    0.7246 </r>
       <r>   23.1155    0.0000 </r>
       <r>   24.1213    0.0000 </r>
       <r>   26.8479    0.0000 </r>
       <r>   31.0946    0.0000 </r>
       <r>   32.4546    0.0000 </r>
      </set>
      <set comment="kpoint 35">
       <r>   11.0511    1.0000 </r>
       <r>   11.3482    1.0000 </r>
       <r>   13.7549    1.0000 </r>
       <r>   13.9324    1.0000 </r>
       <r>   21.3253    0.0000 </r>
       <r>   22.8372    0.0000 </r>
       <r>   30.1605    0.0000 </r>
       <r>   31.4294    0.0000 </r>
      </set>
      <set comment="kpoint 36">
       <r>    7.9685    1.0000 </r>
       <r>    9.5525    1.0000 </r>
       <r>   14.5514    1.0000 </r>
       <r>   16.0861    1.0000 </r>
       <r>   25.4620    0.0000 </r>
       <r>   28.2167    0.0000 </r>
       <r>   29.4446    0.0000 </r>
       <r>   30.7863    0.0000 </r>
      </set>
     </set>
    </set>
   </array>
  </eigenvalues>
  <separator name="orbital magnetization" >
   <v name="MAGDIPOLOUT">      0.00000000      0.00000000      0.00000000</v>
  </separator>
  <dos>
   <i name="efermi">     20.99253905 </i>
   <total>
    <array>
     <dimension dim="1">gridpoints</dimension>
     <dimension dim="2">spin</dimension>
     <field>energy</field>
     <field>total</field>
     <field>integrated</field>
     <set>
      <set comment="spin 1">
       <r>    -2.0695     0.0000     0.0000 </r>
       <r>    -1.9315     0.0000     0.0000 </r>
       <r>    -1.7934     0.0000     0.0000 </r>
       <r>    -1.6553     0.0000     0.0000 </r>
       <r>    -1.5172     0.0000     0.0000 </r>
       <r>    -1.3791     0.0000     0.0000 </r>
       <r>    -1.2410     0.0000     0.0000 </r>
       <r>    -1.1029     0.0000     0.0000 </r>
       <r>    -0.9648     0.0000     0.0000 </r>
       <r>    -0.8267     0.0000     0.0000 </r>
       <r>    -0.6886     0.0000     0.0000 </r>
       <r>    -0.5505     0.0000     0.0000 </r>
       <r>    -0.4125     0.0002     0.0000 </r>
       <r>    -0.2744     0.0285     0.0040 </r>
       <r>    -0.1363     0.1755     0.0282 </r>
       <r>     0.0018     0.0630     0.0369 </r>
       <r>     0.1399     0.0012     0.0371 </r>
       <r>     0.2780     0.0337     0.0417 </r>
       <r>     0.4161     0.3091     0.0844 </r>
       <r>     0.5542     0.1868     0.1102 </r>
       <r>     0.6923     0.0066     0.1111 </r>
       <r>     0.8304     0.0080     0.1122 </r>
       <r>     0.9684     0.1336     0.1307 </r>
       <r>     1.1065     0.1209     0.1473 </r>
       <r>     1.2446     0.0060     0.1482 </r>
       <r>     1.3827     0.0483     0.1549 </r>
       <r>     1.5208     0.3861     0.2082 </r>
       <r>     1.6589     0.3225     0.2527 </r>
       <r>     1.7970     0.0471     0.2592 </r>
       <r>     1.9351     0.0449     0.2654 </r>
       <r>     2.0732     0.4963     0.3340 </r>
       <r>     2.2113     0.4791     0.4001 </r>
       <r>     2.3494     0.0524     0.4074 </r>
       <r>     2.4874     0.0113     0.4089 </r>
       <r>     2.6255     0.1454     0.4290 </r>
       <r>     2.7636     0.1078     0.4439 </r>
       <r>     2.9017     0.0047     0.4445 </r>
       <r>     3.0398     0.0754     0.4549 </r>
       <r>     3.1779     0.4859     0.5220 </r>
       <r>     3.3160     0.5502     0.5980 </r>
       <r>     3.4541     0.2145     0.6276 </r>
       <r>     3.5922     0.0552     0.6353 </r>
       <r>     3.7303     0.4126     0.6922 </r>
       <r>     3.8683     0.4424     0.7533 </r>
       <r>     4.0064     0.1671     0.7764 </r>
       <r>     4.1445     0.0100     0.7778 </r>
       <r>     4.2826     0.0000     0.7778 </r>
       <r>     4.4207     0.0000     0.7778 </r>
       <r>     4.5588     0.0040     0.7783 </r>
       <r>     4.6969     0.1763     0.8027 </r>
       <r>     4.8350     0.5928     0.8845 </r>
       <r>     4.9731     0.6135     0.9693 </r>
       <r>     5.1112     0.2267     1.0006 </r>
       <r>     5.2493     0.3516     1.0491 </r>
       <r>     5.3873     0.6620     1.1405 </r>
       <r>     5.5254     0.2691     1.1777 </r>
       <r>     5.6635     0.2457     1.2116 </r>
       <r>     5.8016     0.2658     1.2483 </r>
       <r>     5.9397     0.3173     1.2921 </r>
       <r>     6.0778     0.0668     1.3014 </r>
       <r>     6.2159     0.2009     1.3291 </r>
       <r>     6.3540     0.3024     1.3709 </r>
       <r>     6.4921     0.5762     1.4504 </r>
       <r>     6.6302     0.4421     1.5115 </r>
       <r>     6.7682     0.1127     1.5271 </r>
       <r>     6.9063     0.4952     1.5954 </r>
       <r>     7.0444     0.4757     1.6611 </r>
       <r>     7.1825     0.2471     1.6953 </r>
       <r>     7.3206     0.3419     1.7425 </r>
       <r>     7.4587     0.2053     1.7708 </r>
       <r>     7.5968     0.0603     1.7791 </r>
       <r>     7.7349     0.1616     1.8015 </r>
       <r>     7.8730     0.4067     1.8576 </r>
       <r>     8.0111     0.4819     1.9242 </r>
       <r>     8.1492     0.4409     1.9850 </r>
       <r>     8.2872     0.1809     2.0100 </r>
       <r>     8.4253     0.5402     2.0846 </r>
       <r>     8.5634     0.6056     2.1683 </r>
       <r>     8.7015     0.5027     2.2377 </r>
       <r>     8.8396     0.4691     2.3025 </r>
       <r>     8.9777     0.2081     2.3312 </r>
       <r>     9.1158     0.0155     2.3333 </r>
       <r>     9.2539     0.0123     2.3350 </r>
       <r>     9.3920     0.3597     2.3847 </r>
       <r>     9.5301     0.7315     2.4857 </r>
       <r>     9.6681     0.3566     2.5350 </r>
       <r>     9.8062     0.2427     2.5685 </r>
       <r>     9.9443     0.6750     2.6617 </r>
       <r>    10.0824     0.4927     2.7297 </r>
       <r>    10.2205     0.6883     2.8248 </r>
       <r>    10.3586     0.5280     2.8977 </r>
       <r>    10.4967     0.1972     2.9249 </r>
       <r>    10.6348     0.2659     2.9617 </r>
       <r>    10.7729     0.7606     3.0667 </r>
       <r>    10.9110     0.8595     3.1854 </r>
       <r>    11.0491     0.6432     3.2742 </r>
       <r>    11.1871     0.3781     3.3264 </r>
       <r>    11.3252     0.5873     3.4075 </r>
       <r>    11.4633     0.7037     3.5047 </r>
       <r>    11.6014     0.0996     3.5184 </r>
       <r>    11.7395     0.0006     3.5185 </r>
       <r>    11.8776     0.0044     3.5191 </r>
       <r>    12.0157     0.1478     3.5395 </r>
       <r>    12.1538     0.5665     3.6178 </r>
       <r>    12.2919     0.6353     3.7055 </r>
       <r>    12.4300     0.4529     3.7680 </r>
       <r>    12.5680     0.3306     3.8137 </r>
       <r>    12.7061     0.4814     3.8802 </r>
       <r>    12.8442     0.4846     3.9471 </r>
       <r>    12.9823     0.3959     4.0017 </r>
       <r>    13.1204     0.2444     4.0355 </r>
       <r>    13.2585     0.0688     4.0450 </r>
       <r>    13.3966     0.4281     4.1041 </r>
       <r>    13.5347     0.4863     4.1713 </r>
       <r>    13.6728     0.1532     4.1924 </r>
       <r>    13.8109     0.3905     4.2463 </r>
       <r>    13.9489     0.6778     4.3399 </r>
       <r>    14.0870     0.4799     4.4062 </r>
       <r>    14.2251     0.1855     4.4318 </r>
       <r>    14.3632     0.0995     4.4456 </r>
       <r>    14.5013     0.3148     4.4890 </r>
       <r>    14.6394     1.1778     4.6517 </r>
       <r>    14.7775     1.3611     4.8396 </r>
       <r>    14.9156     0.3409     4.8867 </r>
       <r>    15.0537     0.3221     4.9312 </r>
       <r>    15.1918     0.2310     4.9631 </r>
       <r>    15.3299     0.2390     4.9961 </r>
       <r>    15.4679     0.5169     5.0675 </r>
       <r>    15.6060     1.0583     5.2136 </r>
       <r>    15.7441     0.5164     5.2849 </r>
       <r>    15.8822     0.3033     5.3268 </r>
       <r>    16.0203     0.1015     5.3408 </r>
       <r>    16.1584     0.4735     5.4062 </r>
       <r>    16.2965     0.8547     5.5242 </r>
       <r>    16.4346     0.6509     5.6141 </r>
       <r>    16.5727     0.6682     5.7063 </r>
       <r>    16.7108     0.4228     5.7647 </r>
       <r>    16.8488     0.0945     5.7778 </r>
       <r>    16.9869     0.1294     5.7956 </r>
       <r>    17.1250     0.6908     5.8910 </r>
       <r>    17.2631     0.2967     5.9320 </r>
       <r>    17.4012     0.5038     6.0016 </r>
       <r>    17.5393     0.5209     6.0735 </r>
       <r>    17.6774     0.2747     6.1114 </r>
       <r>    17.8155     0.5365     6.1855 </r>
       <r>    17.9536     0.8323     6.3005 </r>
       <r>    18.0917     1.1380     6.4576 </r>
       <r>    18.2298     0.6364     6.5455 </r>
       <r>    18.3678     0.0744     6.5558 </r>
       <r>    18.5059     0.0925     6.5685 </r>
       <r>    18.6440     0.4882     6.6359 </r>
       <r>    18.7821     0.6750     6.7292 </r>
       <r>    18.9202     0.1681     6.7524 </r>
       <r>    19.0583     0.7262     6.8527 </r>
       <r>    19.1964     0.4904     6.9204 </r>
       <r>    19.3345     0.0480     6.9270 </r>
       <r>    19.4726     0.3057     6.9692 </r>
       <r>    19.6107     0.9243     7.0969 </r>
       <r>    19.7487     0.4646     7.1610 </r>
       <r>    19.8868     0.7009     7.2578 </r>
       <r>    20.0249     1.2762     7.4340 </r>
       <r>    20.1630     0.8258     7.5481 </r>
       <r>    20.3011     0.4705     7.6130 </r>
       <r>    20.4392     0.7252     7.7132 </r>
       <r>    20.5773     0.4568     7.7762 </r>
       <r>    20.7154     0.2945     7.8169 </r>
       <r>    20.8535     0.7544     7.9211 </r>
       <r>    20.9916     0.5681     7.9995 </r>
       <r>    21.1297     0.4748     8.0651 </r>
       <r>    21.2677     0.5802     8.1452 </r>
       <r>    21.4058     1.0386     8.2886 </r>
       <r>    21.5439     0.6867     8.3835 </r>
       <r>    21.6820     0.3903     8.4374 </r>
       <r>    21.8201     0.5088     8.5076 </r>
       <r>    21.9582     1.1632     8.6683 </r>
       <r>    22.0963     0.7990     8.7786 </r>
       <r>    22.2344     0.4794     8.8448 </r>
       <r>    22.3725     0.4834     8.9115 </r>
       <r>    22.5106     0.2016     8.9394 </r>
       <r>    22.6486     0.1576     8.9611 </r>
       <r>    22.7867     0.0769     8.9718 </r>
       <r>    22.9248     0.1770     8.9962 </r>
       <r>    23.0629     0.1487     9.0167 </r>
       <r>    23.2010     0.5294     9.0898 </r>
       <r>    23.3391     0.1525     9.1109 </r>
       <r>    23.4772     0.1072     9.1257 </r>
       <r>    23.6153     0.9227     9.2531 </r>
       <r>    23.7534     0.7962     9.3630 </r>
       <r>    23.8915     0.3303     9.4087 </r>
       <r>    24.0296     0.5193     9.4804 </r>
       <r>    24.1676     0.6970     9.5766 </r>
       <r>    24.3057     0.6198     9.6622 </r>
       <r>    24.4438     0.4904     9.7299 </r>
       <r>    24.5819     1.3265     9.9131 </r>
       <r>    24.7200     1.6183    10.1366 </r>
       <r>    24.8581     0.3946    10.1911 </r>
       <r>    24.9962     0.2359    10.2236 </r>
       <r>    25.1343     0.2307    10.2555 </r>
       <r>    25.2724     0.1854    10.2811 </r>
       <r>    25.4105     0.2025    10.3091 </r>
       <r>    25.5485     0.6522    10.3991 </r>
       <r>    25.6866     0.6827    10.4934 </r>
       <r>    25.8247     0.5662    10.5716 </r>
       <r>    25.9628     0.4880    10.6390 </r>
       <r>    26.1009     0.6355    10.7267 </r>
       <r>    26.2390     0.8113    10.8388 </r>
       <r>    26.3771     0.6491    10.9284 </r>
       <r>    26.5152     0.4487    10.9904 </r>
       <r>    26.6533     0.7677    11.0964 </r>
       <r>    26.7914     1.8612    11.3534 </r>
       <r>    26.9295     1.0905    11.5040 </r>
       <r>    27.0675     0.3433    11.5514 </r>
       <r>    27.2056     0.1871    11.5772 </r>
       <r>    27.3437     0.4497    11.6393 </r>
       <r>    27.4818     0.3992    11.6944 </r>
       <r>    27.6199     0.0666    11.7036 </r>
       <r>    27.7580     0.0163    11.7059 </r>
       <r>    27.8961     0.3368    11.7524 </r>
       <r>    28.0342     0.6961    11.8485 </r>
       <r>    28.1723     1.3455    12.0343 </r>
       <r>    28.3104     0.7665    12.1402 </r>
       <r>    28.4484     0.1810    12.1652 </r>
       <r>    28.5865     0.9592    12.2976 </r>
       <r>    28.7246     0.5130    12.3685 </r>
       <r>    28.8627     0.2045    12.3967 </r>
       <r>    29.0008     0.4513    12.4590 </r>
       <r>    29.1389     0.4392    12.5197 </r>
       <r>    29.2770     0.8073    12.6312 </r>
       <r>    29.4151     1.1070    12.7840 </r>
       <r>    29.5532     0.7630    12.8894 </r>
       <r>    29.6913     0.5371    12.9636 </r>
       <r>    29.8294     0.6937    13.0594 </r>
       <r>    29.9674     0.1083    13.0743 </r>
       <r>    30.1055     0.2717    13.1118 </r>
       <r>    30.2436     1.7585    13.3547 </r>
       <r>    30.3817     1.4077    13.5491 </r>
       <r>    30.5198     0.6140    13.6338 </r>
       <r>    30.6579     0.5669    13.7121 </r>
       <r>    30.7960     0.6258    13.7985 </r>
       <r>    30.9341     0.5601    13.8759 </r>
       <r>    31.0722     0.8824    13.9977 </r>
       <r>    31.2103     1.0779    14.1466 </r>
       <r>    31.3483     0.9392    14.2763 </r>
       <r>    31.4864     0.5828    14.3568 </r>
       <r>    31.6245     0.3533    14.4055 </r>
       <r>    31.7626     0.4880    14.4729 </r>
       <r>    31.9007     0.1211    14.4897 </r>
       <r>    32.0388     0.1922    14.5162 </r>
       <r>    32.1769     0.3731    14.5677 </r>
       <r>    32.3150     0.4370    14.6281 </r>
       <r>    32.4531     0.3945    14.6825 </r>
       <r>    32.5912     0.7665    14.7884 </r>
       <r>    32.7293     0.1886    14.8144 </r>
       <r>    32.8673     0.0333    14.8190 </r>
       <r>    33.0054     0.3227    14.8636 </r>
       <r>    33.1435     0.6216    14.9494 </r>
       <r>    33.2816     1.5740    15.1668 </r>
       <r>    33.4197     1.4250    15.3636 </r>
       <r>    33.5578     0.3530    15.4123 </r>
       <r>    33.6959     0.1858    15.4380 </r>
       <r>    33.8340     0.1082    15.4529 </r>
       <r>    33.9721     0.2338    15.4852 </r>
       <r>    34.1102     0.3835    15.5382 </r>
       <r>    34.2482     0.3509    15.5866 </r>
       <r>    34.3863     0.1947    15.6135 </r>
       <r>    34.5244     0.1126    15.6290 </r>
       <r>    34.6625     0.0433    15.6350 </r>
       <r>    34.8006     0.1840    15.6604 </r>
       <r>    34.9387     0.2315    15.6924 </r>
       <r>    35.0768     0.5124    15.7632 </r>
       <r>    35.2149     0.2441    15.7969 </r>
       <r>    35.3530     0.4842    15.8637 </r>
       <r>    35.4911     0.1779    15.8883 </r>
       <r>    35.6292     0.0044    15.8889 </r>
       <r>    35.7672     0.0116    15.8905 </r>
       <r>    35.9053     0.1480    15.9109 </r>
       <r>    36.0434     0.1048    15.9254 </r>
       <r>    36.1815     0.0038    15.9259 </r>
       <r>    36.3196     0.0000    15.9259 </r>
       <r>    36.4577     0.0131    15.9277 </r>
       <r>    36.5958     0.1525    15.9488 </r>
       <r>    36.7339     0.0992    15.9625 </r>
       <r>    36.8720     0.0033    15.9630 </r>
       <r>    37.0101     0.0000    15.9630 </r>
       <r>    37.1481     0.0000    15.9630 </r>
       <r>    37.2862     0.0010    15.9631 </r>
       <r>    37.4243     0.0630    15.9718 </r>
       <r>    37.5624     0.1755    15.9960 </r>
       <r>    37.7005     0.0285    16.0000 </r>
       <r>    37.8386     0.0002    16.0000 </r>
       <r>    37.9767     0.0000    16.0000 </r>
       <r>    38.1148     0.0000    16.0000 </r>
       <r>    38.2529     0.0000    16.0000 </r>
       <r>    38.3910     0.0000    16.0000 </r>
       <r>    38.5291     0.0000    16.0000 </r>
       <r>    38.6671     0.0000    16.0000 </r>
       <r>    38.8052     0.0000    16.0000 </r>
       <r>    38.9433     0.0000    16.0000 </r>
       <r>    39.0814     0.0000    16.0000 </r>
       <r>    39.2195     0.0000    16.0000 </r>
       <r>    39.3576     0.0000    16.0000 </r>
      </set>
     </set>
    </array>
   </total>
  </dos>
 </calculation>
 <structure name="finalpos" >
  <crystal>
   <varray name="basis" >
    <v>       2.18078928      -0.00000000       0.00000000 </v>
    <v>      -1.09039464       1.88861892      -0.00000000 </v>
    <v>      -0.00000000       0.00000000       3.65615131 </v>
   </varray>
   <i name="volume">     15.05851686 </i>
   <varray name="rec_basis" >
    <v>       0.45854958       0.26474372       0.00000000 </v>
    <v>       0.00000000       0.52948744      -0.00000000 </v>
    <v>      -0.00000000      -0.00000000       0.27351166 </v>
   </varray>
  </crystal>
  <varray name="positions" >
   <v>      -0.00000000       0.00000000      -0.00000000 </v>
   <v>       0.33333333       0.66666667       0.50000000 </v>
  </varray>
 </structure>
</modeling>
