Fe BCC                                  
   2.72000000000000     
    -0.500000    0.500000    0.500000
     0.500000   -0.500000    0.500000
     0.500000    0.500000   -0.500000
   Fe
     1
Direct
  0.000000  0.000000  0.000000
 
   32   32   32
  84.665      82.856      77.671      69.784      60.129      49.705      39.413      29.961      21.839      15.336    
  10.551      7.3967      5.6076      4.7683      4.3899      4.1624      4.0836      4.1624      4.3899      4.7683    
  5.6076      7.3967      10.551      15.336      21.839      29.961      39.413      49.705      60.129      69.784    
  77.671      82.856      82.856      82.258      78.217      71.264      62.254      52.167      41.935      32.322    
  23.882      16.965      11.727      8.1426      6.0017      4.9346      4.4697      4.2011      4.0724      4.0985    
  4.2766      4.5886      5.1995      6.5758      9.1647      13.287      19.093      26.547      35.428      45.321    
  55.601      65.438      73.867      79.928      77.671      78.217      75.429      69.680      61.697      52.388    
  42.668      33.324      24.952      17.948      12.519      8.6922      6.3136      5.0654      4.5108      4.2105    
  4.0389      4.0142      4.1388      4.3997      4.8302      5.7972      7.7608      11.087      15.988      22.497    
  30.465      39.557      49.240      58.784      67.303      73.867      69.784      71.264      69.680      65.247    
  58.538      50.345      41.522      32.839      24.905      18.146      12.804      8.9497      6.4809      5.1322    
  4.5119      4.1886      3.9843      3.9150      3.9867      4.1938      4.5205      5.1460      6.5049      8.9927    
  12.878      18.262      25.073      33.056      41.777      50.613      58.784      65.438      60.129      62.254    
  61.697      58.538      53.192      46.315      38.661      30.944      23.759      17.535      12.538      8.8684    
  6.4651      5.1129      4.4698      4.1354      3.9103      3.8061      3.8303      3.9821      4.2503      4.6554    
  5.5067      7.2060      10.066      14.254      19.775      26.458      33.962      41.777      49.240      55.601    
  49.705      52.167      52.388      50.345      46.315      40.810      34.460      27.901      21.681      16.215    
  11.769      8.4615      6.2631      5.0015      4.3840      4.0532      3.8196      3.6920      3.6779      3.7783    
  3.9896      4.2984      4.8000      5.8444      7.7673      10.794      15.001      20.304      26.458      33.056    
  39.557      45.321      39.413      41.935      42.668      41.522      38.661      34.460      29.427      24.098    
  18.955      14.377      10.617      7.7972      5.9075      4.8109      4.2602      3.9465      3.7157      3.5768    
  3.5354      3.5929      3.7492      4.0003      4.3386      4.9252      6.0844      8.0785      11.051      15.001    
  19.775      25.073      30.465      35.428      29.961      32.322      33.324      32.839      30.944      27.901    
  24.098      19.966      15.912      12.265      9.2496      6.9803      5.4572      4.5694      4.1098      3.8216    
  3.6030      3.4637      3.4067      3.4319      3.5406      3.7341      4.0088      4.3679      4.9982      6.1711    
  8.0785      10.794      14.254      18.262      22.497      26.547      21.839      23.882      24.952      24.905    
  23.759      21.681      18.955      15.912      12.879      10.126      7.8430      6.1274      4.9809      4.3114    
  3.9457      3.6856      3.4864      3.3555      3.2931      3.2976      3.3693      3.5115      3.7271      4.0131    
  4.3788      4.9982      6.0844      7.7673      10.066      12.878      15.988      19.093      15.336      16.965    
  17.948      18.146      17.535      16.215      14.377      12.265      10.126      8.1717      6.5518      5.3422    
  4.5402      4.0667      3.7767      3.5462      3.3709      3.2547      3.1951      3.1888      3.2350      3.3365    
  3.4986      3.7250      4.0131      4.3679      4.9252      5.8444      7.2060      8.9927      11.087      13.287    
  10.551      11.727      12.519      12.804      12.538      11.769      10.617      9.2496      7.8430      6.5518    
  5.4857      4.6968      4.1749      3.8498      3.6088      3.4103      3.2617      3.1635      3.1122      3.1031    
  3.1342      3.2071      3.3264      3.4986      3.7271      4.0088      4.3386      4.8000      5.5067      6.5049    
  7.7608      9.1647      7.3967      8.1426      8.6922      8.9497      8.8684      8.4615      7.7972      6.9803    
  6.1274      5.3422      4.6968      4.2201      3.8939      3.6546      3.4498      3.2844      3.1629      3.0842    
  3.0441      3.0378      3.0622      3.1175      3.2071      3.3365      3.5115      3.7341      4.0003      4.2984    
  4.6554      5.1460      5.7972      6.5758      5.6076      6.0017      6.3136      6.4809      6.4651      6.2631    
  5.9075      5.4572      4.9809      4.5402      4.1749      3.8939      3.6713      3.4740      3.3060      3.1735    
  3.0783      3.0188      2.9912      2.9910      3.0150      3.0622      3.1342      3.2350      3.3693      3.5406    
  3.7492      3.9896      4.2503      4.5205      4.8302      5.1995      4.7683      4.9346      5.0654      5.1322    
  5.1129      5.0015      4.8109      4.5694      4.3114      4.0667      3.8498      3.6546      3.4740      3.3148    
  3.1826      3.0809      3.0103      2.9692      2.9545      2.9627      2.9910      3.0378      3.1031      3.1888    
  3.2976      3.4319      3.5929      3.7783      3.9821      4.1938      4.3997      4.5886      4.3899      4.4697    
  4.5108      4.5119      4.4698      4.3840      4.2602      4.1098      3.9457      3.7767      3.6088      3.4498    
  3.3060      3.1826      3.0831      3.0091      2.9608      2.9370      2.9357      2.9545      2.9912      3.0441    
  3.1122      3.1951      3.2931      3.4067      3.5354      3.6779      3.8303      3.9867      4.1388      4.2766    
  4.1624      4.2011      4.2105      4.1886      4.1354      4.0532      3.9465      3.8216      3.6856      3.5462    
  3.4103      3.2844      3.1735      3.0809      3.0091      2.9590      2.9308      2.9238      2.9370      2.9692    
  3.0188      3.0842      3.1635      3.2547      3.3555      3.4637      3.5768      3.6920      3.8061      3.9150    
  4.0142      4.0985      4.0836      4.0724      4.0389      3.9843      3.9103      3.8196      3.7157      3.6030    
  3.4864      3.3709      3.2617      3.1629      3.0783      3.0103      2.9608      2.9308      2.9207      2.9308    
  2.9608      3.0103      3.0783      3.1629      3.2617      3.3709      3.4864      3.6030      3.7157      3.8196    
  3.9103      3.9843      4.0389      4.0724      4.1624      4.0985      4.0142      3.9150      3.8061      3.6920    
  3.5768      3.4637      3.3555      3.2547      3.1635      3.0842      3.0188      2.9692      2.9370      2.9238    
  2.9308      2.9590      3.0091      3.0809      3.1735      3.2844      3.4103      3.5462      3.6856      3.8216    
  3.9465      4.0532      4.1354      4.1886      4.2105      4.2011      4.3899      4.2766      4.1388      3.9867    
  3.8303      3.6779      3.5354      3.4067      3.2931      3.1951      3.1122      3.0441      2.9912      2.9545    
  2.9357      2.9370      2.9608      3.0091      3.0831      3.1826      3.3060      3.4498      3.6088      3.7767    
  3.9457      4.1098      4.2602      4.3840      4.4698      4.5119      4.5108      4.4697      4.7683      4.5886    
  4.3997      4.1938      3.9821      3.7783      3.5929      3.4319      3.2976      3.1888      3.1031      3.0378    
  2.9910      2.9627      2.9545      2.9692      3.0103      3.0809      3.1826      3.3148      3.4740      3.6546    
  3.8498      4.0667      4.3114      4.5694      4.8109      5.0015      5.1129      5.1322      5.0654      4.9346    
  5.6076      5.1995      4.8302      4.5205      4.2503      3.9896      3.7492      3.5406      3.3693      3.2350    
  3.1342      3.0622      3.0150      2.9910      2.9912      3.0188      3.0783      3.1735      3.3060      3.4740    
  3.6713      3.8939      4.1749      4.5402      4.9809      5.4572      5.9075      6.2631      6.4651      6.4809    
  6.3136      6.0017      7.3967      6.5758      5.7972      5.1460      4.6554      4.2984      4.0003      3.7341    
  3.5115      3.3365      3.2071      3.1175      3.0622      3.0378      3.0441      3.0842      3.1629      3.2844    
  3.4498      3.6546      3.8939      4.2201      4.6968      5.3422      6.1274      6.9803      7.7972      8.4615    
  8.8684      8.9497      8.6922      8.1426      10.551      9.1647      7.7608      6.5049      5.5067      4.8000    
  4.3386      4.0088      3.7271      3.4986      3.3264      3.2071      3.1342      3.1031      3.1122      3.1635    
  3.2617      3.4103      3.6088      3.8498      4.1749      4.6968      5.4857      6.5518      7.8430      9.2496    
  10.617      11.769      12.538      12.804      12.519      11.727      15.336      13.287      11.087      8.9927    
  7.2060      5.8444      4.9252      4.3679      4.0131      3.7250      3.4986      3.3365      3.2350      3.1888    
  3.1951      3.2547      3.3709      3.5462      3.7767      4.0667      4.5402      5.3422      6.5518      8.1717    
  10.126      12.265      14.377      16.215      17.535      18.146      17.948      16.965      21.839      19.093    
  15.988      12.878      10.066      7.7673      6.0844      4.9982      4.3788      4.0131      3.7271      3.5115    
  3.3693      3.2976      3.2931      3.3555      3.4864      3.6856      3.9457      4.3114      4.9809      6.1274    
  7.8430      10.126      12.879      15.912      18.955      21.681      23.759      24.905      24.952      23.882    
  29.961      26.547      22.497      18.262      14.254      10.794      8.0785      6.1711      4.9982      4.3679    
  4.0088      3.7341      3.5406      3.4319      3.4067      3.4637      3.6030      3.8216      4.1098      4.5694    
  5.4572      6.9803      9.2496      12.265      15.912      19.966      24.098      27.901      30.944      32.839    
  33.324      32.322      39.413      35.428      30.465      25.073      19.775      15.001      11.051      8.0785    
  6.0844      4.9252      4.3386      4.0003      3.7492      3.5929      3.5354      3.5768      3.7157      3.9465    
  4.2602      4.8109      5.9075      7.7972      10.617      14.377      18.955      24.098      29.427      34.460    
  38.661      41.522      42.668      41.935      49.705      45.321      39.557      33.056      26.458      20.304    
  15.001      10.794      7.7673      5.8444      4.8000      4.2984      3.9896      3.7783      3.6779      3.6920    
  3.8196      4.0532      4.3840      5.0015      6.2631      8.4615      11.769      16.215      21.681      27.901    
  34.460      40.810      46.315      50.345      52.388      52.167      60.129      55.601      49.240      41.777    
  33.962      26.458      19.775      14.254      10.066      7.2060      5.5067      4.6554      4.2503      3.9821    
  3.8303      3.8061      3.9103      4.1354      4.4698      5.1129      6.4651      8.8684      12.538      17.535    
  23.759      30.944      38.661      46.315      53.192      58.538      61.697      62.254      69.784      65.438    
  58.784      50.613      41.777      33.056      25.073      18.262      12.878      8.9927      6.5049      5.1460    
  4.5205      4.1938      3.9867      3.9150      3.9843      4.1886      4.5119      5.1322      6.4809      8.9497    
  12.804      18.146      24.905      32.839      41.522      50.345      58.538      65.247      69.680      71.264    
  77.671      73.867      67.303      58.784      49.240      39.557      30.465      22.497      15.988      11.087    
  7.7608      5.7972      4.8302      4.3997      4.1388      4.0142      4.0389      4.2105      4.5108      5.0654    
  6.3136      8.6922      12.519      17.948      24.952      33.324      42.668      52.388      61.697      69.680    
  75.429      78.217      82.856      79.928      73.867      65.438      55.601      45.321      35.428      26.547    
  19.093      13.287      9.1647      6.5758      5.1995      4.5886      4.2766      4.0985      4.0724      4.2011    
  4.4697      4.9346      6.0017      8.1426      11.727      16.965      23.882      32.322      41.935      52.167    
  62.254      71.264      78.217      82.258      82.856      82.258      78.217      71.264      62.254      52.167    
  41.935      32.322      23.882      16.965      11.727      8.1426      6.0017      4.9346      4.4697      4.2011    
  4.0724      4.0985      4.2766      4.5886      5.1995      6.5758      9.1647      13.287      19.093      26.547    
  35.428      45.321      55.601      65.438      73.867      79.928      82.258      82.856      79.928      73.867    
  65.438      55.601      45.321      35.428      26.547      19.093      13.287      9.1647      6.5758      5.1995    
  4.5886      4.2766      4.0985      4.0724      4.2011      4.4697      4.9346      6.0017      8.1426      11.727    
  16.965      23.882      32.322      41.935      52.167      62.254      71.264      78.217      78.217      79.928    
  78.217      73.314      65.853      56.718      46.857      37.125      28.198      20.546      14.445      9.9828    
  7.0692      5.4370      4.6780      4.3208      4.1007      4.0247      4.1007      4.3208      4.6780      5.4370    
  7.0692      9.9828      14.445      20.546      28.198      37.125      46.857      56.718      65.853      73.314    
  71.264      73.867      73.314      69.680      63.445      55.372      46.341      37.192      28.618      21.125    
  15.029      10.465      7.3936      5.6017      4.7290      4.3293      4.0776      3.9583      3.9829      4.1494    
  4.4410      4.9489      6.0842      8.2752      11.839      16.934      23.538      31.456      40.304      49.508    
  58.314      65.853      62.254      65.438      65.853      63.445      58.538      51.748      43.851      35.629    
  27.758      20.753      14.955      10.532      7.4861      5.6547      4.7282      4.3005      4.0292      3.8764    
  3.8555      3.9682      4.2062      4.5639      5.2839      6.7876      9.4284      13.424      18.828      25.520    
  33.207      41.416      49.508      56.718      52.167      55.601      56.718      55.372      51.748      46.315    
  39.720      32.654      25.745      19.492      14.239      10.172      7.3254      5.5770      4.6668      4.2357    
  3.9567      3.7821      3.7251      3.7888      3.9708      4.2587      4.7016      5.6326      7.4195      10.330    
  14.487      19.850      26.213      33.207      40.304      46.857      41.935      45.321      46.857      46.341    
  43.851      39.720      34.460      28.654      22.857      17.528      12.994      9.4477      6.9376      5.3760    
  4.5468      4.1389      3.8634      3.6791      3.5971      3.6206      3.7498      3.9807      4.3015      4.8361    
  5.9220      7.8566      10.823      14.860      19.850      25.520      31.456      37.125      32.322      35.428    
  37.125      37.192      35.629      32.654      28.654      24.098      19.454      15.123      11.403      8.4723    
  6.3876      5.0835      4.3814      4.0163      3.7537      3.5707      3.4756      3.4697      3.5539      3.7287    
  3.9905      4.3358      4.9354      6.0858      8.0126      10.823      14.487      18.828      23.538      28.198    
  23.882      26.547      28.198      28.618      27.758      25.745      22.857      19.454      15.912      12.568    
  9.6736      7.3874      5.7620      4.7461      4.1914      3.8756      3.6332      3.4608      3.3629      3.3390    
  3.3889      3.5145      3.7181      3.9968      4.3558      4.9720      6.0858      7.8566      10.330      13.424    
  16.934      20.546      16.965      19.093      20.546      21.125      20.753      19.492      17.528      15.123    
  12.568      10.126      8.0044      6.3309      5.1479      4.4114      3.9971      3.7251      3.5081      3.3529    
  3.2607      3.2289      3.2557      3.3427      3.4941      3.7137      3.9989      4.3558      4.9354      5.9220    
  7.4195      9.4284      11.839      14.445      11.727      13.287      14.445      15.029      14.955      14.239    
  12.994      11.403      9.6736      8.0044      6.5518      5.4123      4.6139      4.1151      3.8100      3.5731    
  3.3848      3.2509      3.1700      3.1381      3.1520      3.2120      3.3220      3.4879      3.7137      3.9968    
  4.3358      4.8361      5.6326      6.7876      8.2752      9.9828      8.1426      9.1647      9.9828      10.465    
  10.532      10.172      9.4477      8.4723      7.3874      6.3309      5.4123      4.6968      4.1968      3.8704    
  3.6299      3.4272      3.2691      3.1582      3.0918      3.0651      3.0741      3.1177      3.1985      3.3220    
  3.4941      3.7181      3.9905      4.3015      4.7016      5.2839      6.0842      7.0692      6.0017      6.5758    
  7.0692      7.3936      7.4861      7.3254      6.9376      6.3876      5.7620      5.1479      4.6139      4.1968    
  3.8939      3.6627      3.4611      3.2936      3.1657      3.0779      3.0271      3.0087      3.0184      3.0544    
  3.1177      3.2120      3.3427      3.5145      3.7287      3.9807      4.2587      4.5639      4.9489      5.4370    
  4.9346      5.1995      5.4370      5.6017      5.6547      5.5770      5.3760      5.0835      4.7461      4.4114    
  4.1151      3.8704      3.6627      3.4740      3.3102      3.1773      3.0782      3.0124      2.9772      2.9687    
  2.9832      3.0184      3.0741      3.1520      3.2557      3.3889      3.5539      3.7498      3.9708      4.2062    
  4.4410      4.6780      4.4697      4.5886      4.6780      4.7290      4.7282      4.6668      4.5468      4.3814    
  4.1914      3.9971      3.8100      3.6299      3.4611      3.3102      3.1826      3.0818      3.0091      2.9638    
  2.9438      2.9464      2.9687      3.0087      3.0651      3.1381      3.2289      3.3390      3.4697      3.6206    
  3.7888      3.9682      4.1494      4.3208      4.2011      4.2766      4.3208      4.3293      4.3005      4.2357    
  4.1389      4.0163      3.8756      3.7251      3.5731      3.4272      3.2936      3.1773      3.0818      3.0091    
  2.9598      2.9333      2.9285      2.9438      2.9772      3.0271      3.0918      3.1700      3.2607      3.3629    
  3.4756      3.5971      3.7251      3.8555      3.9829      4.1007      4.0724      4.0985      4.1007      4.0776    
  4.0292      3.9567      3.8634      3.7537      3.6332      3.5081      3.3848      3.2691      3.1657      3.0782    
  3.0091      2.9598      2.9308      2.9221      2.9333      2.9638      3.0124      3.0779      3.1582      3.2509    
  3.3529      3.4608      3.5707      3.6791      3.7821      3.8764      3.9583      4.0247      4.0985      4.0724    
  4.0247      3.9583      3.8764      3.7821      3.6791      3.5707      3.4608      3.3529      3.2509      3.1582    
  3.0779      3.0124      2.9638      2.9333      2.9221      2.9308      2.9598      3.0091      3.0782      3.1657    
  3.2691      3.3848      3.5081      3.6332      3.7537      3.8634      3.9567      4.0292      4.0776      4.1007    
  4.2766      4.2011      4.1007      3.9829      3.8555      3.7251      3.5971      3.4756      3.3629      3.2607    
  3.1700      3.0918      3.0271      2.9772      2.9438      2.9285      2.9333      2.9598      3.0091      3.0818    
  3.1773      3.2936      3.4272      3.5731      3.7251      3.8756      4.0163      4.1389      4.2357      4.3005    
  4.3293      4.3208      4.5886      4.4697      4.3208      4.1494      3.9682      3.7888      3.6206      3.4697    
  3.3390      3.2289      3.1381      3.0651      3.0087      2.9687      2.9464      2.9438      2.9638      3.0091    
  3.0818      3.1826      3.3102      3.4611      3.6299      3.8100      3.9971      4.1914      4.3814      4.5468    
  4.6668      4.7282      4.7290      4.6780      5.1995      4.9346      4.6780      4.4410      4.2062      3.9708    
  3.7498      3.5539      3.3889      3.2557      3.1520      3.0741      3.0184      2.9832      2.9687      2.9772    
  3.0124      3.0782      3.1773      3.3102      3.4740      3.6627      3.8704      4.1151      4.4114      4.7461    
  5.0835      5.3760      5.5770      5.6547      5.6017      5.4370      6.5758      6.0017      5.4370      4.9489    
  4.5639      4.2587      3.9807      3.7287      3.5145      3.3427      3.2120      3.1177      3.0544      3.0184    
  3.0087      3.0271      3.0779      3.1657      3.2936      3.4611      3.6627      3.8939      4.1968      4.6139    
  5.1479      5.7620      6.3876      6.9376      7.3254      7.4861      7.3936      7.0692      9.1647      8.1426    
  7.0692      6.0842      5.2839      4.7016      4.3015      3.9905      3.7181      3.4941      3.3220      3.1985    
  3.1177      3.0741      3.0651      3.0918      3.1582      3.2691      3.4272      3.6299      3.8704      4.1968    
  4.6968      5.4123      6.3309      7.3874      8.4723      9.4477      10.172      10.532      10.465      9.9828    
  13.287      11.727      9.9828      8.2752      6.7876      5.6326      4.8361      4.3358      3.9968      3.7137    
  3.4879      3.3220      3.2120      3.1520      3.1381      3.1700      3.2509      3.3848      3.5731      3.8100    
  4.1151      4.6139      5.4123      6.5518      8.0044      9.6736      11.403      12.994      14.239      14.955    
  15.029      14.445      19.093      16.965      14.445      11.839      9.4284      7.4195      5.9220      4.9354    
  4.3558      3.9989      3.7137      3.4941      3.3427      3.2557      3.2289      3.2607      3.3529      3.5081    
  3.7251      3.9971      4.4114      5.1479      6.3309      8.0044      10.126      12.568      15.123      17.528    
  19.492      20.753      21.125      20.546      26.547      23.882      20.546      16.934      13.424      10.330    
  7.8566      6.0858      4.9720      4.3558      3.9968      3.7181      3.5145      3.3889      3.3390      3.3629    
  3.4608      3.6332      3.8756      4.1914      4.7461      5.7620      7.3874      9.6736      12.568      15.912    
  19.454      22.857      25.745      27.758      28.618      28.198      35.428      32.322      28.198      23.538    
  18.828      14.487      10.823      8.0126      6.0858      4.9354      4.3358      3.9905      3.7287      3.5539    
  3.4697      3.4756      3.5707      3.7537      4.0163      4.3814      5.0835      6.3876      8.4723      11.403    
  15.123      19.454      24.098      28.654      32.654      35.629      37.192      37.125      45.321      41.935    
  37.125      31.456      25.520      19.850      14.860      10.823      7.8566      5.9220      4.8361      4.3015    
  3.9807      3.7498      3.6206      3.5971      3.6791      3.8634      4.1389      4.5468      5.3760      6.9376    
  9.4477      12.994      17.528      22.857      28.654      34.460      39.720      43.851      46.341      46.857    
  55.601      52.167      46.857      40.304      33.207      26.213      19.850      14.487      10.330      7.4195    
  5.6326      4.7016      4.2587      3.9708      3.7888      3.7251      3.7821      3.9567      4.2357      4.6668    
  5.5770      7.3254      10.172      14.239      19.492      25.745      32.654      39.720      46.315      51.748    
  55.372      56.718      65.438      62.254      56.718      49.508      41.416      33.207      25.520      18.828    
  13.424      9.4284      6.7876      5.2839      4.5639      4.2062      3.9682      3.8555      3.8764      4.0292    
  4.3005      4.7282      5.6547      7.4861      10.532      14.955      20.753      27.758      35.629      43.851    
  51.748      58.538      63.445      65.853      73.867      71.264      65.853      58.314      49.508      40.304    
  31.456      23.538      16.934      11.839      8.2752      6.0842      4.9489      4.4410      4.1494      3.9829    
  3.9583      4.0776      4.3293      4.7290      5.6017      7.3936      10.465      15.029      21.125      28.618    
  37.192      46.341      55.372      63.445      69.680      73.314      79.928      78.217      73.314      65.853    
  56.718      46.857      37.125      28.198      20.546      14.445      9.9828      7.0692      5.4370      4.6780    
  4.3208      4.1007      4.0247      4.1007      4.3208      4.6780      5.4370      7.0692      9.9828      14.445    
  20.546      28.198      37.125      46.857      56.718      65.853      73.314      78.217      77.671      78.217    
  75.429      69.680      61.697      52.388      42.668      33.324      24.952      17.948      12.519      8.6922    
  6.3136      5.0654      4.5108      4.2105      4.0389      4.0142      4.1388      4.3997      4.8302      5.7972    
  7.7608      11.087      15.988      22.497      30.465      39.557      49.240      58.784      67.303      73.867    
  78.217      79.928      78.217      73.314      65.853      56.718      46.857      37.125      28.198      20.546    
  14.445      9.9828      7.0692      5.4370      4.6780      4.3208      4.1007      4.0247      4.1007      4.3208    
  4.6780      5.4370      7.0692      9.9828      14.445      20.546      28.198      37.125      46.857      56.718    
  65.853      73.314      75.429      78.217      77.671      73.867      67.303      58.784      49.240      39.557    
  30.465      22.497      15.988      11.087      7.7608      5.7972      4.8302      4.3997      4.1388      4.0142    
  4.0389      4.2105      4.5108      5.0654      6.3136      8.6922      12.519      17.948      24.952      33.324    
  42.668      52.388      61.697      69.680      69.680      73.314      73.867      71.264      65.853      58.314    
  49.508      40.304      31.456      23.538      16.934      11.839      8.2752      6.0842      4.9489      4.4410    
  4.1494      3.9829      3.9583      4.0776      4.3293      4.7290      5.6017      7.3936      10.465      15.029    
  21.125      28.618      37.192      46.341      55.372      63.445      61.697      65.853      67.303      65.853    
  61.697      55.372      47.627      39.271      31.043      23.530      17.144      12.121      8.5219      6.2402    
  5.0093      4.4430      4.1304      3.9318      3.8639      3.9318      4.1304      4.4430      5.0093      6.2402    
  8.5219      12.121      17.144      23.530      31.043      39.271      47.627      55.372      52.388      56.718    
  58.784      58.314      55.372      50.345      43.851      36.604      29.290      22.481      16.595      11.888    
  8.4552      6.2289      4.9915      4.4040      4.0815      3.8623      3.7605      3.7824      3.9270      4.1848    
  4.5626      5.3300      6.8760      9.5077      13.396      18.552      24.823      31.890      39.271      46.341    
  42.668      46.857      49.240      49.508      47.627      43.851      38.661      32.654      26.439      20.545    
  15.373      11.183      8.0853      6.0462      4.8897      4.3242      4.0047      3.7769      3.6524      3.6372    
  3.7320      3.9338      4.2305      4.6885      5.6315      7.3866      10.178      14.088      19.045      24.823    
  31.043      37.192      33.324      37.125      39.557      40.304      39.271      36.604      32.654      27.901    
  22.857      17.987      13.658      10.115      7.4747      5.7218      4.7155      4.2088      3.9043      3.6788    
  3.5433      3.5018      3.5551      3.7034      3.9436      4.2659      4.7975      5.8464      7.6703      10.415    
  14.088      18.552      23.530      28.618      24.952      28.198      30.465      31.456      31.043      29.290    
  26.439      22.857      18.955      15.123      11.679      8.8425      6.7208      5.3095      4.4943      4.0679    
  3.7859      3.5721      3.4361      3.3795      3.4019      3.5042      3.6882      3.9513      4.2907      4.8611    
  5.9242      7.6703      10.178      13.396      17.144      21.125      17.948      20.546      22.497      23.538    
  23.530      22.481      20.545      17.987      15.123      12.265      9.6736      7.5322      5.9329      4.8729    
  4.2573      3.9126      3.6565      3.4615      3.3335      3.2718      3.2743      3.3412      3.4756      3.6809    
  3.9553      4.2999      4.8611      5.8464      7.3866      9.5077      12.121      15.029      12.519      14.445    
  15.988      16.934      17.144      16.595      15.373      13.658      11.679      9.6736      7.8430      6.3309    
  5.2083      4.4687      4.0307      3.7504      3.5235      3.3518      3.2379      3.1790      3.1713      3.2138    
  3.3092      3.4628      3.6788      3.9553      4.2907      4.7975      5.6315      6.8760      8.5219      10.465    
  8.6922      9.9828      11.087      11.839      12.121      11.888      11.183      10.115      8.8425      7.5322    
  6.3309      5.3422      4.6139      4.1327      3.8262      3.5888      3.3936      3.2479      3.1516      3.1006    
  3.0903      3.1186      3.1866      3.2994      3.4628      3.6809      3.9513      4.2659      4.6885      5.3300    
  6.2402      7.3936      6.3136      7.0692      7.7608      8.2752      8.5219      8.4552      8.0853      7.4747    
  6.7208      5.9329      5.2083      4.6139      4.1749      3.8704      3.6369      3.4354      3.2731      3.1540    