Fe BCC                                  
   2.72000000000000     
    -0.500000    0.500000    0.500000
     0.500000   -0.500000    0.500000
     0.500000    0.500000   -0.500000
   Fe
     1
Direct
  0.000000  0.000000  0.000000
 
   32   32   32
 0.84665165284E+02 0.82855548120E+02 0.77671464077E+02 0.69784181785E+02 0.60128585347E+02
 0.49704833158E+02 0.39413102316E+02 0.29960789750E+02 0.21839071066E+02 0.15335886085E+02
 0.10550506803E+02 0.73966537892E+01 0.56076174465E+01 0.47682779258E+01 0.43898891736E+01
 0.41624136593E+01 0.40836302172E+01 0.41624136593E+01 0.43898891736E+01 0.47682779258E+01
 0.56076174465E+01 0.73966537892E+01 0.10550506803E+02 0.15335886085E+02 0.21839071066E+02
 0.29960789750E+02 0.39413102316E+02 0.49704833158E+02 0.60128585347E+02 0.69784181785E+02
 0.77671464077E+02 0.82855548120E+02 0.82855548120E+02 0.82258048948E+02 0.78216528826E+02
 0.71264252133E+02 0.62253900834E+02 0.52166926960E+02 0.41934652821E+02 0.32321725426E+02
 0.23882475611E+02 0.16965110523E+02 0.11727369743E+02 0.81425695244E+01 0.60016995746E+01
 0.49346358733E+01 0.44696811260E+01 0.42010567755E+01 0.40723699222E+01 0.40984608695E+01
 0.42765685168E+01 0.45886134320E+01 0.51994614373E+01 0.65757654426E+01 0.91647204970E+01
 0.13287407190E+02 0.19092986999E+02 0.26546576771E+02 0.35427898910E+02 0.45321386484E+02
 0.55600924611E+02 0.65437659069E+02 0.73866691391E+02 0.79927815614E+02 0.77671464077E+02
 0.78216528826E+02 0.75428564994E+02 0.69680451211E+02 0.61697332116E+02 0.52388357157E+02
 0.42668099171E+02 0.33323910175E+02 0.24952021767E+02 0.17948126058E+02 0.12519380046E+02
 0.86921711731E+01 0.63136376529E+01 0.50654472304E+01 0.45108166630E+01 0.42105016024E+01
 0.40389170824E+01 0.40141858059E+01 0.41387793442E+01 0.43996799700E+01 0.48301576030E+01
 0.57971576836E+01 0.77607879033E+01 0.11087317285E+02 0.15988283186E+02 0.22496865972E+02
 0.30464550420E+02 0.39556595408E+02 0.49240251481E+02 0.58784289168E+02 0.67302869883E+02
 0.73866691391E+02 0.69784181785E+02 0.71264252133E+02 0.69680451211E+02 0.65247391193E+02
 0.58537578604E+02 0.50345424372E+02 0.41522401479E+02 0.32839062105E+02 0.24905273894E+02
 0.18145626923E+02 0.12803818221E+02 0.89496772753E+01 0.64808980797E+01 0.51322152753E+01
 0.45119341236E+01 0.41885972475E+01 0.39842913675E+01 0.39149822836E+01 0.39867261160E+01
 0.41937727043E+01 0.45204791412E+01 0.51459973245E+01 0.65048993195E+01 0.89927229113E+01
 0.12877697870E+02 0.18262308244E+02 0.25072635168E+02 0.33056350280E+02 0.41777065369E+02
 0.50612823312E+02 0.58784289168E+02 0.65437659069E+02 0.60128585347E+02 0.62253900834E+02
 0.61697332116E+02 0.58537578604E+02 0.53191808781E+02 0.46315390961E+02 0.38660576416E+02
 0.30944075157E+02 0.23758695307E+02 0.17535442487E+02 0.12538356845E+02 0.88684062794E+01
 0.64650919011E+01 0.51129372413E+01 0.44698174553E+01 0.41353722348E+01 0.39102905247E+01
 0.38060551994E+01 0.38303058204E+01 0.39820556422E+01 0.42502820600E+01 0.46554022011E+01
 0.55066916308E+01 0.72060373238E+01 0.10065703976E+02 0.14254465466E+02 0.19774749966E+02
 0.26457736250E+02 0.33962351565E+02 0.41777065369E+02 0.49240251481E+02 0.55600924611E+02
 0.49704833158E+02 0.52166926960E+02 0.52388357157E+02 0.50345424372E+02 0.46315390961E+02
 0.40809518497E+02 0.34459921179E+02 0.27901206681E+02 0.21681424623E+02 0.16215130879E+02
 0.11769070741E+02 0.84615282381E+01 0.62630869830E+01 0.50015205069E+01 0.43839850724E+01
 0.40531810930E+01 0.38195759927E+01 0.36920345154E+01 0.36778637357E+01 0.37782787084E+01
 0.39896156410E+01 0.42983637635E+01 0.47999908367E+01 0.58444284191E+01 0.77673238575E+01
 0.10793746375E+02 0.15000881287E+02 0.20304487074E+02 0.26457736250E+02 0.33056350280E+02
 0.39556595408E+02 0.45321386484E+02 0.39413102316E+02 0.41934652821E+02 0.42668099171E+02
 0.41522401479E+02 0.38660576416E+02 0.34459921179E+02 0.29426885797E+02 0.24097615888E+02
 0.18954845418E+02 0.14377061208E+02 0.10617176303E+02 0.77971799889E+01 0.59075193896E+01
 0.48109323938E+01 0.42601642487E+01 0.39465269271E+01 0.37156950839E+01 0.35768371177E+01
 0.35354486131E+01 0.35928555974E+01 0.37491745609E+01 0.40003175897E+01 0.43385634026E+01
 0.49252265840E+01 0.60843756354E+01 0.80785097817E+01 0.11051101661E+02 0.15000881287E+02
 0.19774749966E+02 0.25072635168E+02 0.30464550420E+02 0.35427898910E+02 0.29960789750E+02
 0.32321725426E+02 0.33323910175E+02 0.32839062105E+02 0.30944075157E+02 0.27901206681E+02
 0.24097615888E+02 0.19966125932E+02 0.15912414796E+02 0.12264944319E+02 0.92495541943E+01
 0.69802700829E+01 0.54571641233E+01 0.45694104819E+01 0.41097591578E+01 0.38216008228E+01
 0.36029888060E+01 0.34637327300E+01 0.34066814210E+01 0.34319342733E+01 0.35406241863E+01
 0.37341082023E+01 0.40087713968E+01 0.43678759811E+01 0.49981685336E+01 0.61710835538E+01
 0.80785097817E+01 0.10793746375E+02 0.14254465466E+02 0.18262308244E+02 0.22496865972E+02
 0.26546576771E+02 0.21839071066E+02 0.23882475611E+02 0.24952021767E+02 0.24905273894E+02
 0.23758695307E+02 0.21681424623E+02 0.18954845418E+02 0.15912414796E+02 0.12879205378E+02
 0.10126052123E+02 0.78429514156E+01 0.61273813315E+01 0.49808718053E+01 0.43114409115E+01
 0.39457058273E+01 0.36856303988E+01 0.34863636829E+01 0.33555153340E+01 0.32931463971E+01
 0.32975825656E+01 0.33692923147E+01 0.35114662058E+01 0.37270654822E+01 0.40130798254E+01
 0.43788156872E+01 0.49981685336E+01 0.60843756354E+01 0.77673238575E+01 0.10065703976E+02
 0.12877697870E+02 0.15988283186E+02 0.19092986999E+02 0.15335886085E+02 0.16965110523E+02
 0.17948126058E+02 0.18145626923E+02 0.17535442487E+02 0.16215130879E+02 0.14377061208E+02
 0.12264944319E+02 0.10126052123E+02 0.81717083458E+01 0.65518301032E+01 0.53422043399E+01
 0.45401883571E+01 0.40666512290E+01 0.37766762700E+01 0.35461546729E+01 0.33709459659E+01
 0.32546779811E+01 0.31950845253E+01 0.31888306327E+01 0.32350371108E+01 0.33365394556E+01
 0.34985688380E+01 0.37250057982E+01 0.40130798254E+01 0.43678759811E+01 0.49252265840E+01
 0.58444284191E+01 0.72060373238E+01 0.89927229113E+01 0.11087317285E+02 0.13287407190E+02
 0.10550506803E+02 0.11727369743E+02 0.12519380046E+02 0.12803818221E+02 0.12538356845E+02
 0.11769070741E+02 0.10617176303E+02 0.92495541943E+01 0.78429514156E+01 0.65518301032E+01
 0.54857290292E+01 0.46967611178E+01 0.41749434076E+01 0.38497652628E+01 0.36088440169E+01
 0.34103418310E+01 0.32616774019E+01 0.31635287915E+01 0.31121562829E+01 0.31031234736E+01
 0.31342475461E+01 0.32070538719E+01 0.33264497568E+01 0.34985688380E+01 0.37270654822E+01
 0.40087713968E+01 0.43385634026E+01 0.47999908367E+01 0.55066916308E+01 0.65048993195E+01
 0.77607879033E+01 0.91647204970E+01 0.73966537892E+01 0.81425695244E+01 0.86921711731E+01
 0.89496772753E+01 0.88684062794E+01 0.84615282381E+01 0.77971799889E+01 0.69802700829E+01
 0.61273813315E+01 0.53422043399E+01 0.46967611178E+01 0.42201363211E+01 0.38939488752E+01
 0.36545573456E+01 0.34497802785E+01 0.32844446391E+01 0.31629382382E+01 0.30842371904E+01
 0.30441016011E+01 0.30377565731E+01 0.30621816212E+01 0.31174773247E+01 0.32070538719E+01
 0.33365394556E+01 0.35114662058E+01 0.37341082023E+01 0.40003175897E+01 0.42983637635E+01
 0.46554022011E+01 0.51459973245E+01 0.57971576836E+01 0.65757654426E+01 0.56076174465E+01
 0.60016995746E+01 0.63136376529E+01 0.64808980797E+01 0.64650919011E+01 0.62630869830E+01
 0.59075193896E+01 0.54571641233E+01 0.49808718053E+01 0.45401883571E+01 0.41749434076E+01
 0.38939488752E+01 0.36712665029E+01 0.34739926207E+01 0.33060123951E+01 0.31734504916E+01
 0.30782810469E+01 0.30188326133E+01 0.29911972712E+01 0.29909941797E+01 0.30149840096E+01
 0.30621816212E+01 0.31342475461E+01 0.32350371108E+01 0.33692923147E+01 0.35406241863E+01
 0.37491745609E+01 0.39896156410E+01 0.42502820600E+01 0.45204791412E+01 0.48301576030E+01
 0.51994614373E+01 0.47682779258E+01 0.49346358733E+01 0.50654472304E+01 0.51322152753E+01
 0.51129372413E+01 0.50015205069E+01 0.48109323938E+01 0.45694104819E+01 0.43114409115E+01
 0.40666512290E+01 0.38497652628E+01 0.36545573456E+01 0.34739926207E+01 0.33147613808E+01
 0.31826377383E+01 0.30809393190E+01 0.30103254472E+01 0.29691854445E+01 0.29544683046E+01
 0.29627054623E+01 0.29909941797E+01 0.30377565731E+01 0.31031234736E+01 0.31888306327E+01
 0.32975825656E+01 0.34319342733E+01 0.35928555974E+01 0.37782787084E+01 0.39820556422E+01
 0.41937727043E+01 0.43996799700E+01 0.45886134320E+01 0.43898891736E+01 0.44696811260E+01
 0.45108166630E+01 0.45119341236E+01 0.44698174553E+01 0.43839850724E+01 0.42601642487E+01
 0.41097591578E+01 0.39457058273E+01 0.37766762700E+01 0.36088440169E+01 0.34497802785E+01
 0.33060123951E+01 0.31826377383E+01 0.30831035097E+01 0.30091254861E+01 0.29608122713E+01
 0.29369903086E+01 0.29356566927E+01 0.29544683046E+01 0.29911972712E+01 0.30441016011E+01
 0.31121562829E+01 0.31950845253E+01 0.32931463971E+01 0.34066814210E+01 0.35354486131E+01
 0.36778637357E+01 0.38303058204E+01 0.39867261160E+01 0.41387793442E+01 0.42765685168E+01
 0.41624136593E+01 0.42010567755E+01 0.42105016024E+01 0.41885972475E+01 0.41353722348E+01
 0.40531810930E+01 0.39465269271E+01 0.38216008228E+01 0.36856303988E+01 0.35461546729E+01
 0.34103418310E+01 0.32844446391E+01 0.31734504916E+01 0.30809393190E+01 0.30091254861E+01
 0.29590363505E+01 0.29307679391E+01 0.29237538060E+01 0.29369903086E+01 0.29691854445E+01
 0.30188326133E+01 0.30842371904E+01 0.31635287915E+01 0.32546779811E+01 0.33555153340E+01
 0.34637327300E+01 0.35768371177E+01 0.36920345154E+01 0.38060551994E+01 0.39149822836E+01
 0.40141858059E+01 0.40984608695E+01 0.40836302172E+01 0.40723699222E+01 0.40389170824E+01
 0.39842913675E+01 0.39102905247E+01 0.38195759927E+01 0.37156950839E+01 0.36029888060E+01
 0.34863636829E+01 0.33709459659E+01 0.32616774019E+01 0.31629382382E+01 0.30782810469E+01
 0.30103254472E+01 0.29608122713E+01 0.29307679391E+01 0.29207029526E+01 0.29307679391E+01
 0.29608122713E+01 0.30103254472E+01 0.30782810469E+01 0.31629382382E+01 0.32616774019E+01
 0.33709459659E+01 0.34863636829E+01 0.36029888060E+01 0.37156950839E+01 0.38195759927E+01
 0.39102905247E+01 0.39842913675E+01 0.40389170824E+01 0.40723699222E+01 0.41624136593E+01
 0.40984608695E+01 0.40141858059E+01 0.39149822836E+01 0.38060551994E+01 0.36920345154E+01
 0.35768371177E+01 0.34637327300E+01 0.33555153340E+01 0.32546779811E+01 0.31635287915E+01
 0.30842371904E+01 0.30188326133E+01 0.29691854445E+01 0.29369903086E+01 0.29237538060E+01
 0.29307679391E+01 0.29590363505E+01 0.30091254861E+01 0.30809393190E+01 0.31734504916E+01
 0.32844446391E+01 0.34103418310E+01 0.35461546729E+01 0.36856303988E+01 0.38216008228E+01
 0.39465269271E+01 0.40531810930E+01 0.41353722348E+01 0.41885972475E+01 0.42105016024E+01
 0.42010567755E+01 0.43898891736E+01 0.42765685168E+01 0.41387793442E+01 0.39867261160E+01
 0.38303058204E+01 0.36778637357E+01 0.35354486131E+01 0.34066814210E+01 0.32931463971E+01
 0.31950845253E+01 0.31121562829E+01 0.30441016011E+01 0.29911972712E+01 0.29544683046E+01
 0.29356566927E+01 0.29369903086E+01 0.29608122713E+01 0.30091254861E+01 0.30831035097E+01
 0.31826377383E+01 0.33060123951E+01 0.34497802785E+01 0.36088440169E+01 0.37766762700E+01
 0.39457058273E+01 0.41097591578E+01 0.42601642487E+01 0.43839850724E+01 0.44698174553E+01
 0.45119341236E+01 0.45108166630E+01 0.44696811260E+01 0.47682779258E+01 0.45886134320E+01
 0.43996799700E+01 0.41937727043E+01 0.39820556422E+01 0.37782787084E+01 0.35928555974E+01
 0.34319342733E+01 0.32975825656E+01 0.31888306327E+01 0.31031234736E+01 0.30377565731E+01
 0.29909941797E+01 0.29627054623E+01 0.29544683046E+01 0.29691854445E+01 0.30103254472E+01
 0.30809393190E+01 0.31826377383E+01 0.33147613808E+01 0.34739926207E+01 0.36545573456E+01
 0.38497652628E+01 0.40666512290E+01 0.43114409115E+01 0.45694104819E+01 0.48109323938E+01
 0.50015205069E+01 0.51129372413E+01 0.51322152753E+01 0.50654472304E+01 0.49346358733E+01
 0.56076174465E+01 0.51994614373E+01 0.48301576030E+01 0.45204791412E+01 0.42502820600E+01
 0.39896156410E+01 0.37491745609E+01 0.35406241863E+01 0.33692923147E+01 0.32350371108E+01
 0.31342475461E+01 0.30621816212E+01 0.30149840096E+01 0.29909941797E+01 0.29911972712E+01
 0.30188326133E+01 0.30782810469E+01 0.31734504916E+01 0.33060123951E+01 0.34739926207E+01
 0.36712665029E+01 0.38939488752E+01 0.41749434076E+01 0.45401883571E+01 0.49808718053E+01
 0.54571641233E+01 0.59075193896E+01 0.62630869830E+01 0.64650919011E+01 0.64808980797E+01
 0.63136376529E+01 0.60016995746E+01 0.73966537892E+01 0.65757654426E+01 0.57971576836E+01
 0.51459973245E+01 0.46554022011E+01 0.42983637635E+01 0.40003175897E+01 0.37341082023E+01
 0.35114662058E+01 0.33365394556E+01 0.32070538719E+01 0.31174773247E+01 0.30621816212E+01
 0.30377565731E+01 0.30441016011E+01 0.30842371904E+01 0.31629382382E+01 0.32844446391E+01
 0.34497802785E+01 0.36545573456E+01 0.38939488752E+01 0.42201363211E+01 0.46967611178E+01
 0.53422043399E+01 0.61273813315E+01 0.69802700829E+01 0.77971799889E+01 0.84615282381E+01
 0.88684062794E+01 0.89496772753E+01 0.86921711731E+01 0.81425695244E+01 0.10550506803E+02
 0.91647204970E+01 0.77607879033E+01 0.65048993195E+01 0.55066916308E+01 0.47999908367E+01
 0.43385634026E+01 0.40087713968E+01 0.37270654822E+01 0.34985688380E+01 0.33264497568E+01
 0.32070538719E+01 0.31342475461E+01 0.31031234736E+01 0.31121562829E+01 0.31635287915E+01
 0.32616774019E+01 0.34103418310E+01 0.36088440169E+01 0.38497652628E+01 0.41749434076E+01
 0.46967611178E+01 0.54857290292E+01 0.65518301032E+01 0.78429514156E+01 0.92495541943E+01
 0.10617176303E+02 0.11769070741E+02 0.12538356845E+02 0.12803818221E+02 0.12519380046E+02
 0.11727369743E+02 0.15335886085E+02 0.13287407190E+02 0.11087317285E+02 0.89927229113E+01
 0.72060373238E+01 0.58444284191E+01 0.49252265840E+01 0.43678759811E+01 0.40130798254E+01
 0.37250057982E+01 0.34985688380E+01 0.33365394556E+01 0.32350371108E+01 0.31888306327E+01
 0.31950845253E+01 0.32546779811E+01 0.33709459659E+01 0.35461546729E+01 0.37766762700E+01
 0.40666512290E+01 0.45401883571E+01 0.53422043399E+01 0.65518301032E+01 0.81717083458E+01
 0.10126052123E+02 0.12264944319E+02 0.14377061208E+02 0.16215130879E+02 0.17535442487E+02
 0.18145626923E+02 0.17948126058E+02 0.16965110523E+02 0.21839071066E+02 0.19092986999E+02
 0.15988283186E+02 0.12877697870E+02 0.10065703976E+02 0.77673238575E+01 0.60843756354E+01
 0.49981685336E+01 0.43788156872E+01 0.40130798254E+01 0.37270654822E+01 0.35114662058E+01
 0.33692923147E+01 0.32975825656E+01 0.32931463971E+01 0.33555153340E+01 0.34863636829E+01
 0.36856303988E+01 0.39457058273E+01 0.43114409115E+01 0.49808718053E+01 0.61273813315E+01
 0.78429514156E+01 0.10126052123E+02 0.12879205378E+02 0.15912414796E+02 0.18954845418E+02
 0.21681424623E+02 0.23758695307E+02 0.24905273894E+02 0.24952021767E+02 0.23882475611E+02
 0.29960789750E+02 0.26546576771E+02 0.22496865972E+02 0.18262308244E+02 0.14254465466E+02
 0.10793746375E+02 0.80785097817E+01 0.61710835538E+01 0.49981685336E+01 0.43678759811E+01
 0.40087713968E+01 0.37341082023E+01 0.35406241863E+01 0.34319342733E+01 0.34066814210E+01
 0.34637327300E+01 0.36029888060E+01 0.38216008228E+01 0.41097591578E+01 0.45694104819E+01
 0.54571641233E+01 0.69802700829E+01 0.92495541943E+01 0.12264944319E+02 0.15912414796E+02
 0.19966125932E+02 0.24097615888E+02 0.27901206681E+02 0.30944075157E+02 0.32839062105E+02
 0.33323910175E+02 0.32321725426E+02 0.39413102316E+02 0.35427898910E+02 0.30464550420E+02
 0.25072635168E+02 0.19774749966E+02 0.15000881287E+02 0.11051101661E+02 0.80785097817E+01
 0.60843756354E+01 0.49252265840E+01 0.43385634026E+01 0.40003175897E+01 0.37491745609E+01
 0.35928555974E+01 0.35354486131E+01 0.35768371177E+01 0.37156950839E+01 0.39465269271E+01
 0.42601642487E+01 0.48109323938E+01 0.59075193896E+01 0.77971799889E+01 0.10617176303E+02
 0.14377061208E+02 0.18954845418E+02 0.24097615888E+02 0.29426885797E+02 0.34459921179E+02
 0.38660576416E+02 0.41522401479E+02 0.42668099171E+02 0.41934652821E+02 0.49704833158E+02
 0.45321386484E+02 0.39556595408E+02 0.33056350280E+02 0.26457736250E+02 0.20304487074E+02
 0.15000881287E+02 0.10793746375E+02 0.77673238575E+01 0.58444284191E+01 0.47999908367E+01
 0.42983637635E+01 0.39896156410E+01 0.37782787084E+01 0.36778637357E+01 0.36920345154E+01
 0.38195759927E+01 0.40531810930E+01 0.43839850724E+01 0.50015205069E+01 0.62630869830E+01
 0.84615282381E+01 0.11769070741E+02 0.16215130879E+02 0.21681424623E+02 0.27901206681E+02
 0.34459921179E+02 0.40809518497E+02 0.46315390961E+02 0.50345424372E+02 0.52388357157E+02
 0.52166926960E+02 0.60128585347E+02 0.55600924611E+02 0.49240251481E+02 0.41777065369E+02
 0.33962351565E+02 0.26457736250E+02 0.19774749966E+02 0.14254465466E+02 0.10065703976E+02
 0.72060373238E+01 0.55066916308E+01 0.46554022011E+01 0.42502820600E+01 0.39820556422E+01
 0.38303058204E+01 0.38060551994E+01 0.39102905247E+01 0.41353722348E+01 0.44698174553E+01
 0.51129372413E+01 0.64650919011E+01 0.88684062794E+01 0.12538356845E+02 0.17535442487E+02
 0.23758695307E+02 0.30944075157E+02 0.38660576416E+02 0.46315390961E+02 0.53191808781E+02
 0.58537578604E+02 0.61697332116E+02 0.62253900834E+02 0.69784181785E+02 0.65437659069E+02
 0.58784289168E+02 0.50612823312E+02 0.41777065369E+02 0.33056350280E+02 0.25072635168E+02
 0.18262308244E+02 0.12877697870E+02 0.89927229113E+01 0.65048993195E+01 0.51459973245E+01
 0.45204791412E+01 0.41937727043E+01 0.39867261160E+01 0.39149822836E+01 0.39842913675E+01
 0.41885972475E+01 0.45119341236E+01 0.51322152753E+01 0.64808980797E+01 0.89496772753E+01
 0.12803818221E+02 0.18145626923E+02 0.24905273894E+02 0.32839062105E+02 0.41522401479E+02
 0.50345424372E+02 0.58537578604E+02 0.65247391193E+02 0.69680451211E+02 0.71264252133E+02
 0.77671464077E+02 0.73866691391E+02 0.67302869883E+02 0.58784289168E+02 0.49240251481E+02
 0.39556595408E+02 0.30464550420E+02 0.22496865972E+02 0.15988283186E+02 0.11087317285E+02
 0.77607879033E+01 0.57971576836E+01 0.48301576030E+01 0.43996799700E+01 0.41387793442E+01
 0.40141858059E+01 0.40389170824E+01 0.42105016024E+01 0.45108166630E+01 0.50654472304E+01
 0.63136376529E+01 0.86921711731E+01 0.12519380046E+02 0.17948126058E+02 0.24952021767E+02
 0.33323910175E+02 0.42668099171E+02 0.52388357157E+02 0.61697332116E+02 0.69680451211E+02
 0.75428564994E+02 0.78216528826E+02 0.82855548120E+02 0.79927815614E+02 0.73866691391E+02
 0.65437659069E+02 0.55600924611E+02 0.45321386484E+02 0.35427898910E+02 0.26546576771E+02
 0.19092986999E+02 0.13287407190E+02 0.91647204970E+01 0.65757654426E+01 0.51994614373E+01
 0.45886134320E+01 0.42765685168E+01 0.40984608695E+01 0.40723699222E+01 0.42010567755E+01
 0.44696811260E+01 0.49346358733E+01 0.60016995746E+01 0.81425695244E+01 0.11727369743E+02
 0.16965110523E+02 0.23882475611E+02 0.32321725426E+02 0.41934652821E+02 0.52166926960E+02
 0.62253900834E+02 0.71264252133E+02 0.78216528826E+02 0.82258048948E+02 0.82855548120E+02
 0.82258048948E+02 0.78216528826E+02 0.71264252133E+02 0.62253900834E+02 0.52166926960E+02
 0.41934652821E+02 0.32321725426E+02 0.23882475611E+02 0.16965110523E+02 0.11727369743E+02
 0.81425695244E+01 0.60016995746E+01 0.49346358733E+01 0.44696811260E+01 0.42010567755E+01
 0.40723699222E+01 0.40984608695E+01 0.42765685168E+01 0.45886134320E+01 0.51994614373E+01
 0.65757654426E+01 0.91647204970E+01 0.13287407190E+02 0.19092986999E+02 0.26546576771E+02
 0.35427898910E+02 0.45321386484E+02 0.55600924611E+02 0.65437659069E+02 0.73866691391E+02
 0.79927815614E+02 0.82258048948E+02 0.82855548213E+02 0.79927815794E+02 0.73866691643E+02
 0.65437659376E+02 0.55600924950E+02 0.45321386832E+02 0.35427899243E+02 0.26546577070E+02
 0.19092987249E+02 0.13287407383E+02 0.91647206316E+01 0.65757655252E+01 0.51994614793E+01
 0.45886134474E+01 0.42765685189E+01 0.40984608682E+01 0.40723699215E+01 0.42010567726E+01
 0.44696811118E+01 0.49346358347E+01 0.60016994973E+01 0.81425693968E+01 0.11727369559E+02
 0.16965110284E+02 0.23882475327E+02 0.32321725116E+02 0.41934652507E+02 0.52166926668E+02
 0.62253900589E+02 0.71264251956E+02 0.78216528733E+02 0.78216528826E+02 0.79927815794E+02
 0.78216528987E+02 0.73313607532E+02 0.65852790618E+02 0.56717896185E+02 0.46856636568E+02
 0.37124895315E+02 0.28198054866E+02 0.20546454859E+02 0.14444644679E+02 0.99828012732E+01
 0.70692027932E+01 0.54369619672E+01 0.46780376079E+01 0.43207797379E+01 0.41006657460E+01
 0.40246947182E+01 0.41006657461E+01 0.43207797272E+01 0.46780375669E+01 0.54369618722E+01
 0.70692026218E+01 0.99828010091E+01 0.14444644317E+02 0.20546454406E+02 0.28198054343E+02
 0.37124894754E+02 0.46856636008E+02 0.56717895670E+02 0.65852790189E+02 0.73313607224E+02
 0.71264252133E+02 0.73866691643E+02 0.73313607532E+02 0.69680451393E+02 0.63445391505E+02
 0.55372021144E+02 0.46341076586E+02 0.37192024696E+02 0.28618330619E+02 0.21125289774E+02
 0.15028868903E+02 0.10465115389E+02 0.73936472595E+01 0.56016978528E+01 0.47290229192E+01
 0.43293257605E+01 0.40776003350E+01 0.39583017393E+01 0.39829303906E+01 0.41494413300E+01
 0.44410003103E+01 0.49489328484E+01 0.60842087394E+01 0.82752485940E+01 0.11839329172E+02
 0.16933521387E+02 0.23538426209E+02 0.31455963756E+02 0.40303846561E+02 0.49507753682E+02
 0.58314027193E+02 0.65852790277E+02 0.62253900834E+02 0.65437659376E+02 0.65852790618E+02
 0.63445391505E+02 0.58537578751E+02 0.51747978270E+02 0.43851213564E+02 0.35628915484E+02
 0.27757829005E+02 0.20753029137E+02 0.14954552591E+02 0.10531662260E+02 0.74860615608E+01
 0.56547052577E+01 0.47281871190E+01 0.43005465316E+01 0.40291530317E+01 0.38763513206E+01
 0.38554637134E+01 0.39682201361E+01 0.42062254723E+01 0.45639434557E+01 0.52838923631E+01
 0.67875776104E+01 0.94283764654E+01 0.13424307843E+02 0.18828173808E+02 0.25520254974E+02
 0.33206518945E+02 0.41415711975E+02 0.49507753760E+02 0.56717895834E+02 0.52166926960E+02
 0.55600924950E+02 0.56717896185E+02 0.55372021144E+02 0.51747978270E+02 0.46315391026E+02
 0.39720203913E+02 0.32654243002E+02 0.25745473389E+02 0.19492234389E+02 0.14238706229E+02
 0.10172359045E+02 0.73254292119E+01 0.55769763545E+01 0.46668046780E+01 0.42357234916E+01
 0.39567448722E+01 0.37821479168E+01 0.37250622658E+01 0.37888368846E+01 0.39708489192E+01
 0.42586790662E+01 0.47015974463E+01 0.56325925787E+01 0.74195389269E+01 0.10330082349E+02
 0.14486871994E+02 0.19849873237E+02 0.26213219880E+02 0.33206519005E+02 0.40303846698E+02
 0.46856636228E+02 0.41934652821E+02 0.45321386832E+02 0.46856636568E+02 0.46341076586E+02
 0.43851213564E+02 0.39720203913E+02 0.34459921144E+02 0.28653848756E+02 0.22856999939E+02
 0.17527592789E+02 0.12994447593E+02 0.94477082790E+01 0.69376468339E+01 0.53759795089E+01
 0.45467578570E+01 0.41388823995E+01 0.38634119461E+01 0.36791012358E+01 0.35971420711E+01
 0.36206324558E+01 0.37497595010E+01 0.39806894620E+01 0.43014611696E+01 0.48361000791E+01
 0.59219580003E+01 0.78566473001E+01 0.10823449244E+02 0.14860366020E+02 0.19849873272E+02
 0.25520255069E+02 0.31455963927E+02 0.37124895003E+02 0.32321725426E+02 0.35427899243E+02
 0.37124895315E+02 0.37192024696E+02 0.35628915484E+02 0.32654243002E+02 0.28653848756E+02
 0.24097615775E+02 0.19453658672E+02 0.15123023277E+02 0.11402957752E+02 0.84723360443E+01
 0.63876493263E+01 0.50834996434E+01 0.43814122540E+01 0.40162647594E+01 0.37536674692E+01
 0.35707474767E+01 0.34755807959E+01 0.34697303197E+01 0.35538706803E+01 0.37286649455E+01
 0.39904809284E+01 0.43357507640E+01 0.49353721338E+01 0.60857577724E+01 0.80125716599E+01
 0.10823449256E+02 0.14486872040E+02 0.18828173912E+02 0.23538426387E+02 0.28198054596E+02
 0.23882475611E+02 0.26546577070E+02 0.28198054866E+02 0.28618330619E+02 0.27757829005E+02
 0.25745473389E+02 0.22856999939E+02 0.19453658672E+02 0.15912414658E+02 0.12567566137E+02
 0.96736098640E+01 0.73874376703E+01 0.57620111343E+01 0.47460558348E+01 0.41914047676E+01
 0.38755632095E+01 0.36331505050E+01 0.34607619031E+01 0.33629087384E+01 0.33390306370E+01
 0.33888674721E+01 0.35144622863E+01 0.37181101046E+01 0.39967988590E+01 0.43557996872E+01
 0.49719694266E+01 0.60857577677E+01 0.78566473059E+01 0.10330082388E+02 0.13424307937E+02
 0.16933521551E+02 0.20546454638E+02 0.16965110523E+02 0.19092987249E+02 0.20546454859E+02
 0.21125289774E+02 0.20753029137E+02 0.19492234389E+02 0.17527592789E+02 0.15123023277E+02
 0.12567566137E+02 0.10126052014E+02 0.80044350345E+01 0.63308631959E+01 0.51478669750E+01
 0.44113924983E+01 0.39970661930E+01 0.37251123009E+01 0.35081140245E+01 0.33529063682E+01
 0.32607027885E+01 0.32288799658E+01 0.32556897966E+01 0.33426735759E+01 0.34941404770E+01
 0.37137338830E+01 0.39988907156E+01 0.43557996770E+01 0.49353721182E+01 0.59219579932E+01
 0.74195389487E+01 0.94283765366E+01 0.11839329305E+02 0.14444644512E+02 0.11727369743E+02
 0.13287407383E+02 0.14444644679E+02 0.15028868903E+02 0.14954552591E+02 0.14238706229E+02
 0.12994447593E+02 0.11402957752E+02 0.96736098640E+01 0.80044350345E+01 0.65518300511E+01
 0.54122663407E+01 0.46138871782E+01 0.41151015898E+01 0.38100213948E+01 0.35731396961E+01
 0.33848394888E+01 0.32508939280E+01 0.31700269169E+01 0.31381038256E+01 0.31520029184E+01
 0.32119771923E+01 0.33219924352E+01 0.34879102558E+01 0.37137338764E+01 0.39967988422E+01
 0.43357507406E+01 0.48361000611E+01 0.56325925836E+01 0.67875776557E+01 0.82752486909E+01
 0.99828011571E+01 0.81425695244E+01 0.91647206316E+01 0.99828012732E+01 0.10465115389E+02
 0.10531662260E+02 0.10172359045E+02 0.94477082790E+01 0.84723360443E+01 0.73874376703E+01
 0.63308631959E+01 0.54122663407E+01 0.46967611194E+01 0.41967572678E+01 0.38703809358E+01
 0.36299499128E+01 0.34271632870E+01 0.32690830450E+01 0.31581989018E+01 0.30918095761E+01
 0.30650869810E+01 0.30740605279E+01 0.31176747892E+01 0.31985082084E+01 0.33219924362E+01
 0.34941404719E+01 0.37181100896E+01 0.39904809057E+01 0.43014611482E+01 0.47015974400E+01
 0.52838923860E+01 0.60842088009E+01 0.70692027218E+01 0.60016995746E+01 0.65757655252E+01
 0.70692027932E+01 0.73936472595E+01 0.74860615608E+01 0.73254292119E+01 0.69376468339E+01
 0.63876493263E+01 0.57620111343E+01 0.51478669750E+01 0.46138871782E+01 0.41967572678E+01
 0.38939489047E+01 0.36627009066E+01 0.34610622774E+01 0.32935607385E+01 0.31656521492E+01
 0.30778710644E+01 0.30271058470E+01 0.30086705047E+01 0.30184300720E+01 0.30544257399E+01
 0.31176747962E+01 0.32119772008E+01 0.33426735796E+01 0.35144622809E+01 0.37286649317E+01
 0.39806894456E+01 0.42586790569E+01 0.45639434640E+01 0.49489328814E+01 0.54369619307E+01
 0.49346358733E+01 0.51994614793E+01 0.54369619672E+01 0.56016978528E+01 0.56547052577E+01
 0.55769763545E+01 0.53759795089E+01 0.50834996434E+01 0.47460558348E+01 0.44113924983E+01
 0.41151015898E+01 0.38703809358E+01 0.36627009066E+01 0.34739926510E+01 0.33101802656E+01
 0.31773038049E+01 0.30781772322E+01 0.30124130063E+01 0.29772313089E+01 0.29687289060E+01
 0.29832323886E+01 0.30184300807E+01 0.30740605436E+01 0.31520029362E+01 0.32556898110E+01
 0.33888674791E+01 0.35538706791E+01 0.37497594945E+01 0.39708489134E+01 0.42062254739E+01
 0.44410003246E+01 0.46780375949E+01 0.44696811260E+01 0.45886134474E+01 0.46780376079E+01
 0.47290229192E+01 0.47281871190E+01 0.46668046780E+01 0.45467578570E+01 0.43814122540E+01
 0.41914047676E+01 0.39970661930E+01 0.38100213948E+01 0.36299499128E+01 0.34610622774E+01
 0.33101802656E+01 0.31826377558E+01 0.30818416664E+01 0.30090899132E+01 0.29637529098E+01
 0.29437767809E+01 0.29463705404E+01 0.29687289126E+01 0.30086705190E+01 0.30650870014E+01
 0.31381038484E+01 0.32288799866E+01 0.33390306522E+01 0.34697303282E+01 0.36206324586E+01
 0.37888368846E+01 0.39682201371E+01 0.41494413350E+01 0.43207797373E+01 0.42010567755E+01
 0.42765685189E+01 0.43207797379E+01 0.43293257605E+01 0.43005465316E+01 0.42357234916E+01
 0.41388823995E+01 0.40162647594E+01 0.38755632095E+01 0.37251123009E+01 0.35731396961E+01
 0.34271632870E+01 0.32935607385E+01 0.31773038049E+01 0.30818416664E+01 0.30091254918E+01
 0.29597671973E+01 0.29333056261E+01 0.29285266456E+01 0.29437767836E+01 0.29772313163E+01
 0.30271058597E+01 0.30918095927E+01 0.31700269352E+01 0.32607028060E+01 0.33629087530E+01
 0.34755808065E+01 0.35971420780E+01 0.37250622699E+01 0.38554637162E+01 0.39829303932E+01
 0.41006657491E+01 0.40723699222E+01 0.40984608682E+01 0.41006657460E+01 0.40776003350E+01
 0.40291530317E+01 0.39567448722E+01 0.38634119461E+01 0.37536674692E+01 0.36331505050E+01
 0.35081140245E+01 0.33848394888E+01 0.32690830450E+01 0.31656521492E+01 0.30781772322E+01
 0.30090899132E+01 0.29597671973E+01 0.29307679398E+01 0.29220795529E+01 0.29333056255E+01
 0.29637529096E+01 0.30124130072E+01 0.30778710666E+01 0.31581989052E+01 0.32508939321E+01
 0.33529063727E+01 0.34607619076E+01 0.35707474813E+01 0.36791012404E+01 0.37821479214E+01
 0.38763513249E+01 0.39583017430E+01 0.40246947207E+01 0.40984608695E+01 0.40723699215E+01
 0.40246947182E+01 0.39583017393E+01 0.38763513206E+01 0.37821479168E+01 0.36791012358E+01
 0.35707474767E+01 0.34607619031E+01 0.33529063682E+01 0.32508939280E+01 0.31581989018E+01
 0.30778710644E+01 0.30124130063E+01 0.29637529098E+01 0.29333056261E+01 0.29220795529E+01
 0.29307679379E+01 0.29597671924E+01 0.30090899046E+01 0.30781772199E+01 0.31656521341E+01
 0.32690830286E+01 0.33848394729E+01 0.35081140110E+01 0.36331504953E+01 0.37536674639E+01
 0.38634119450E+01 0.39567448743E+01 0.40291530355E+01 0.40776003390E+01 0.41006657491E+01
 0.42765685168E+01 0.42010567726E+01 0.41006657461E+01 0.39829303906E+01 0.38554637134E+01
 0.37250622658E+01 0.35971420711E+01 0.34755807959E+01 0.33629087384E+01 0.32607027885E+01
 0.31700269169E+01 0.30918095761E+01 0.30271058470E+01 0.29772313089E+01 0.29437767809E+01
 0.29285266456E+01 0.29333056255E+01 0.29597671924E+01 0.30091254797E+01 0.30818416457E+01
 0.31773037761E+01 0.32935607043E+01 0.34271632513E+01 0.35731396630E+01 0.37251122739E+01
 0.38755631905E+01 0.40162647485E+01 0.41388823953E+01 0.42357234915E+01 0.43005465331E+01