   1   1   1   0
  0.1006182E+02  0.2355589E-09  0.2355589E-09  0.2355589E-09  0.5000000E-15
  1.000000000000000E-004
  CAR 
 Fe BCC                                  
     51.38076124     -4.36813081  301      7.14144956      1.00000000
     -4.368  0.0000E+00  0.0000E+00  0.0000E+00  0.0000E+00
     -4.182  0.0000E+00  0.0000E+00  0.0000E+00  0.0000E+00
     -3.996  0.0000E+00  0.0000E+00  0.0000E+00  0.0000E+00
     -3.811  0.0000E+00  0.0000E+00  0.0000E+00  0.0000E+00
     -3.625  0.0000E+00  0.0000E+00  0.0000E+00  0.0000E+00
     -3.439  0.0000E+00  0.0000E+00  0.0000E+00  0.0000E+00
     -3.253  0.0000E+00  0.0000E+00  0.0000E+00  0.0000E+00
     -3.067  0.0000E+00  0.0000E+00  0.0000E+00  0.0000E+00
     -2.881  0.0000E+00  0.0000E+00  0.0000E+00  0.0000E+00
     -2.696  0.0000E+00  0.0000E+00  0.0000E+00  0.0000E+00
     -2.510  0.0000E+00  0.0000E+00  0.0000E+00  0.0000E+00
     -2.324  0.0000E+00  0.0000E+00  0.0000E+00  0.0000E+00
     -2.138  0.0000E+00  0.0000E+00  0.0000E+00  0.0000E+00
     -1.952  0.0000E+00  0.0000E+00  0.0000E+00  0.0000E+00
     -1.767  0.1109E-01  0.0000E+00  0.1323E-02  0.0000E+00
     -1.581  0.1686E-01  0.0000E+00  0.3934E-02  0.0000E+00
     -1.395  0.2175E-01  0.1115E-01  0.7536E-02  0.1398E-02
     -1.209  0.2576E-01  0.1670E-01  0.1196E-01  0.3999E-02
     -1.023  0.3222E-01  0.2137E-01  0.1728E-01  0.7551E-02
     -0.837  0.3857E-01  0.2516E-01  0.2388E-01  0.1189E-01
     -0.652  0.4344E-01  0.3123E-01  0.3153E-01  0.1706E-01
     -0.466  0.4494E-01  0.3711E-01  0.3978E-01  0.2343E-01
     -0.280  0.5036E-01  0.4151E-01  0.4863E-01  0.3076E-01
     -0.094  0.5633E-01  0.4199E-01  0.5853E-01  0.3864E-01
      0.092  0.6283E-01  0.4632E-01  0.6960E-01  0.4683E-01
      0.278  0.6988E-01  0.5100E-01  0.8192E-01  0.5587E-01
      0.463  0.7747E-01  0.5603E-01  0.9560E-01  0.6581E-01
      0.649  0.8898E-01  0.6140E-01  0.1108E+00  0.7672E-01
      0.835  0.1077E+00  0.6712E-01  0.1291E+00  0.8865E-01
      1.021  0.1279E+00  0.7227E-01  0.1510E+00  0.1017E+00
      1.207  0.1581E+00  0.8243E-01  0.1771E+00  0.1160E+00
      1.393  0.2098E+00  0.9273E-01  0.2110E+00  0.1323E+00
      1.578  0.3850E+00  0.1024E+00  0.2591E+00  0.1505E+00
      1.764  0.4990E+00  0.1140E+00  0.3441E+00  0.1705E+00
      1.950  0.6042E+00  0.1312E+00  0.4458E+00  0.1932E+00
      2.136  0.9178E+00  0.1522E+00  0.5879E+00  0.2195E+00
      2.322  0.8976E+00  0.1767E+00  0.7659E+00  0.2500E+00
      2.508  0.6609E+00  0.2048E+00  0.9120E+00  0.2854E+00
      2.693  0.4381E+00  0.3742E+00  0.1008E+01  0.3396E+00
      2.879  0.2879E+00  0.4058E+00  0.1078E+01  0.4122E+00
      3.065  0.3507E+00  0.4544E+00  0.1135E+01  0.4909E+00
      3.251  0.1347E+01  0.5413E+00  0.1293E+01  0.5855E+00
      3.437  0.1306E+01  0.7165E+00  0.1556E+01  0.6956E+00
      3.623  0.7629E+00  0.7136E+00  0.1759E+01  0.8406E+00
      3.808  0.6168E+00  0.4787E+00  0.1881E+01  0.9505E+00
      3.994  0.7312E+00  0.3407E+00  0.2006E+01  0.1025E+01
      4.180  0.1059E+01  0.2231E+00  0.2171E+01  0.1073E+01
      4.366  0.1654E+01  0.2050E+00  0.2433E+01  0.1111E+01
      4.552  0.7396E+00  0.1061E+01  0.2673E+01  0.1225E+01
      4.738  0.3852E+00  0.1249E+01  0.2764E+01  0.1441E+01
      4.923  0.3303E+00  0.1105E+01  0.2830E+01  0.1665E+01
      5.109  0.3190E+00  0.7725E+00  0.2890E+01  0.1827E+01
      5.295  0.3521E+00  0.8239E+00  0.2950E+01  0.1974E+01
      5.481  0.4880E+00  0.9561E+00  0.3035E+01  0.2134E+01
      5.667  0.7496E+00  0.1235E+01  0.3144E+01  0.2338E+01
      5.852  0.1212E+01  0.1137E+01  0.3329E+01  0.2577E+01
      6.038  0.1715E+01  0.6641E+00  0.3609E+01  0.2745E+01
      6.224  0.2150E+01  0.2913E+00  0.3942E+01  0.2820E+01
      6.410  0.1914E+01  0.2404E+00  0.4220E+01  0.2869E+01
      6.596  0.1082E+01  0.2097E+00  0.4524E+01  0.2910E+01
      6.782  0.8031E+00  0.2145E+00  0.4699E+01  0.2950E+01
      6.967  0.7064E+00  0.2576E+00  0.4835E+01  0.2992E+01
      7.153  0.7635E+00  0.3429E+00  0.4965E+01  0.3049E+01
      7.339  0.9402E+00  0.4622E+00  0.5117E+01  0.3123E+01
      7.525  0.2628E+00  0.7179E+00  0.5220E+01  0.3235E+01
      7.711  0.1391E+00  0.1027E+01  0.5253E+01  0.3395E+01
      7.897  0.1570E+00  0.1336E+01  0.5280E+01  0.3620E+01
      8.082  0.1576E+00  0.1346E+01  0.5309E+01  0.3880E+01
      8.268  0.1565E+00  0.1113E+01  0.5338E+01  0.4105E+01
      8.454  0.1489E+00  0.1085E+01  0.5367E+01  0.4327E+01
      8.640  0.1411E+00  0.1232E+01  0.5394E+01  0.4667E+01
      8.826  0.1381E+00  0.8933E+00  0.5419E+01  0.4856E+01
      9.012  0.1378E+00  0.9155E+00  0.5445E+01  0.5022E+01
      9.197  0.1377E+00  0.5214E+00  0.5471E+01  0.5192E+01
      9.383  0.1377E+00  0.1801E+00  0.5496E+01  0.5246E+01
      9.569  0.1378E+00  0.1987E+00  0.5522E+01  0.5282E+01
      9.755  0.1378E+00  0.1978E+00  0.5548E+01  0.5319E+01
      9.941  0.1366E+00  0.1864E+00  0.5573E+01  0.5355E+01
     10.127  0.1343E+00  0.1718E+00  0.5598E+01  0.5388E+01
     10.312  0.1328E+00  0.1638E+00  0.5623E+01  0.5419E+01
     10.498  0.1335E+00  0.1620E+00  0.5648E+01  0.5450E+01
     10.684  0.1258E+00  0.1608E+00  0.5672E+01  0.5480E+01
     10.870  0.1246E+00  0.1603E+00  0.5695E+01  0.5509E+01
     11.056  0.1729E+00  0.1593E+00  0.5720E+01  0.5539E+01
     11.242  0.1161E+00  0.1566E+00  0.5742E+01  0.5569E+01
     11.427  0.1116E+00  0.1522E+00  0.5764E+01  0.5597E+01
     11.613  0.1073E+00  0.1551E+00  0.5784E+01  0.5626E+01
     11.799  0.1029E+00  0.1429E+00  0.5803E+01  0.5653E+01
     11.985  0.9865E-01  0.1362E+00  0.5822E+01  0.5679E+01
     12.171  0.9442E-01  0.1369E+00  0.5840E+01  0.5704E+01
     12.357  0.8849E-01  0.1351E+00  0.5857E+01  0.5731E+01
     12.542  0.8248E-01  0.1232E+00  0.5873E+01  0.5754E+01
     12.728  0.7653E-01  0.1180E+00  0.5888E+01  0.5777E+01
     12.914  0.7919E-01  0.1129E+00  0.5901E+01  0.5798E+01
     13.100  0.7374E-01  0.1079E+00  0.5916E+01  0.5819E+01
     13.286  0.6543E-01  0.1029E+00  0.5929E+01  0.5838E+01
     13.472  0.4536E-01  0.9725E-01  0.5940E+01  0.5857E+01
     13.657  0.4178E-01  0.9021E-01  0.5948E+01  0.5874E+01
     13.843  0.3840E-01  0.8324E-01  0.5955E+01  0.5890E+01
     14.029  0.3593E-01  0.8423E-01  0.5963E+01  0.5907E+01
     14.215  0.2803E-01  0.7540E-01  0.5969E+01  0.5921E+01
     14.401  0.2199E-01  0.6430E-01  0.5974E+01  0.5934E+01
     14.586  0.1782E-01  0.4752E-01  0.5977E+01  0.5944E+01
     14.772  0.1553E-01  0.4347E-01  0.5980E+01  0.5953E+01
     14.958  0.1522E-01  0.3967E-01  0.5983E+01  0.5960E+01
     15.144  0.1710E-01  0.3377E-01  0.5986E+01  0.5969E+01
     15.330  0.2117E-01  0.2616E-01  0.5990E+01  0.5974E+01
     15.516  0.2742E-01  0.2053E-01  0.5994E+01  0.5979E+01
     15.701  0.4900E-01  0.1690E-01  0.6001E+01  0.5982E+01
     15.887  0.8796E-01  0.1528E-01  0.6014E+01  0.5985E+01
     16.073  0.1386E+00  0.1578E-01  0.6034E+01  0.5988E+01
     16.259  0.1963E+00  0.1845E-01  0.6067E+01  0.5991E+01
     16.445  0.2383E+00  0.2329E-01  0.6107E+01  0.5995E+01
     16.631  0.2551E+00  0.3225E-01  0.6154E+01  0.6001E+01
     16.816  0.2664E+00  0.4563E-01  0.6202E+01  0.6008E+01
     17.002  0.1861E+00  0.9259E-01  0.6251E+01  0.6020E+01
     17.188  0.1818E+00  0.1697E+00  0.6285E+01  0.6046E+01
     17.374  0.1770E+00  0.2204E+00  0.6319E+01  0.6082E+01
     17.560  0.1717E+00  0.2702E+00  0.6351E+01  0.6128E+01
     17.746  0.1659E+00  0.2870E+00  0.6383E+01  0.6180E+01
     17.931  0.1640E+00  0.2902E+00  0.6413E+01  0.6234E+01
     18.117  0.1825E+00  0.1985E+00  0.6444E+01  0.6277E+01
     18.303  0.1677E+00  0.1924E+00  0.6477E+01  0.6313E+01
     18.489  0.1461E+00  0.1857E+00  0.6508E+01  0.6348E+01
     18.675  0.1562E+00  0.1890E+00  0.6536E+01  0.6383E+01
     18.861  0.1616E+00  0.1894E+00  0.6565E+01  0.6418E+01
     19.046  0.1674E+00  0.1556E+00  0.6596E+01  0.6456E+01
     19.232  0.1749E+00  0.1564E+00  0.6628E+01  0.6485E+01
     19.418  0.1876E+00  0.1656E+00  0.6663E+01  0.6515E+01
     19.604  0.1907E+00  0.1702E+00  0.6698E+01  0.6546E+01
     19.790  0.1928E+00  0.1755E+00  0.6734E+01  0.6578E+01
     19.976  0.1956E+00  0.1814E+00  0.6770E+01  0.6611E+01
     20.161  0.1982E+00  0.1963E+00  0.6807E+01  0.6647E+01
     20.347  0.1995E+00  0.1991E+00  0.6844E+01  0.6684E+01
     20.533  0.1994E+00  0.2015E+00  0.6881E+01  0.6721E+01
     20.719  0.1980E+00  0.2041E+00  0.6918E+01  0.6759E+01
     20.905  0.1918E+00  0.2063E+00  0.6958E+01  0.6797E+01
     21.091  0.1813E+00  0.2076E+00  0.6992E+01  0.6835E+01
     21.276  0.1792E+00  0.2073E+00  0.7025E+01  0.6874E+01
     21.462  0.1771E+00  0.2005E+00  0.7058E+01  0.6916E+01
     21.648  0.1760E+00  0.1988E+00  0.7091E+01  0.6953E+01
     21.834  0.1749E+00  0.1874E+00  0.7124E+01  0.6988E+01
     22.020  0.1738E+00  0.1853E+00  0.7156E+01  0.7023E+01
     22.206  0.1727E+00  0.1831E+00  0.7188E+01  0.7057E+01
     22.391  0.1760E+00  0.1812E+00  0.7221E+01  0.7091E+01
     22.577  0.1719E+00  0.1806E+00  0.7253E+01  0.7124E+01
     22.763  0.1687E+00  0.1796E+00  0.7285E+01  0.7158E+01
     22.949  0.1676E+00  0.1786E+00  0.7316E+01  0.7191E+01
     23.135  0.1655E+00  0.1882E+00  0.7347E+01  0.7225E+01
     23.320  0.1643E+00  0.1790E+00  0.7378E+01  0.7259E+01
     23.506  0.1634E+00  0.1747E+00  0.7408E+01  0.7291E+01
     23.692  0.1624E+00  0.1735E+00  0.7438E+01  0.7324E+01
     23.878  0.1615E+00  0.1716E+00  0.7468E+01  0.7356E+01
     24.064  0.1605E+00  0.1708E+00  0.7498E+01  0.7387E+01
     24.250  0.1657E+00  0.1700E+00  0.7529E+01  0.7419E+01
     24.435  0.1675E+00  0.1693E+00  0.7560E+01  0.7451E+01
     24.621  0.1708E+00  0.1685E+00  0.7592E+01  0.7482E+01
     24.807  0.1750E+00  0.1677E+00  0.7624E+01  0.7513E+01
     24.993  0.1820E+00  0.1667E+00  0.7657E+01  0.7544E+01
     25.179  0.2012E+00  0.1657E+00  0.7692E+01  0.7575E+01
     25.365  0.1982E+00  0.1734E+00  0.7729E+01  0.7607E+01
     25.550  0.2090E+00  0.1778E+00  0.7768E+01  0.7640E+01
     25.736  0.2226E+00  0.1836E+00  0.7808E+01  0.7674E+01
     25.922  0.2329E+00  0.1929E+00  0.7850E+01  0.7708E+01
     26.108  0.2273E+00  0.2201E+00  0.7893E+01  0.7747E+01
     26.294  0.2312E+00  0.2133E+00  0.7935E+01  0.7785E+01
     26.480  0.2247E+00  0.2324E+00  0.7979E+01  0.7828E+01
     26.665  0.2273E+00  0.2420E+00  0.8021E+01  0.7872E+01
     26.851  0.2317E+00  0.2270E+00  0.8063E+01  0.7916E+01
     27.037  0.2387E+00  0.2309E+00  0.8107E+01  0.7958E+01
     27.223  0.2442E+00  0.2344E+00  0.8153E+01  0.8002E+01
     27.409  0.2530E+00  0.2373E+00  0.8200E+01  0.8045E+01
     27.595  0.2618E+00  0.2423E+00  0.8248E+01  0.8090E+01
     27.780  0.2708E+00  0.2511E+00  0.8297E+01  0.8136E+01
     27.966  0.2800E+00  0.2565E+00  0.8348E+01  0.8184E+01
     28.152  0.3223E+00  0.2648E+00  0.8403E+01  0.8232E+01
     28.338  0.2850E+00  0.2722E+00  0.8458E+01  0.8282E+01
     28.524  0.2781E+00  0.2834E+00  0.8510E+01  0.8334E+01
     28.710  0.2695E+00  0.3073E+00  0.8561E+01  0.8388E+01
     28.895  0.2603E+00  0.3034E+00  0.8610E+01  0.8446E+01
     29.081  0.2505E+00  0.2895E+00  0.8658E+01  0.8501E+01
     29.267  0.2402E+00  0.2793E+00  0.8703E+01  0.8554E+01
     29.453  0.2282E+00  0.2673E+00  0.8747E+01  0.8605E+01
     29.639  0.2145E+00  0.2567E+00  0.8788E+01  0.8654E+01
     29.825  0.2013E+00  0.2453E+00  0.8827E+01  0.8700E+01
     30.010  0.1843E+00  0.2322E+00  0.8863E+01  0.8745E+01
     30.196  0.1689E+00  0.2177E+00  0.8895E+01  0.8787E+01
     30.382  0.1572E+00  0.2051E+00  0.8926E+01  0.8826E+01
     30.568  0.1478E+00  0.1855E+00  0.8954E+01  0.8862E+01
     30.754  0.1400E+00  0.1713E+00  0.8980E+01  0.8895E+01
     30.940  0.1413E+00  0.1598E+00  0.9006E+01  0.8926E+01
     31.125  0.1452E+00  0.1451E+00  0.9033E+01  0.8954E+01
     31.311  0.1410E+00  0.1402E+00  0.9060E+01  0.8980E+01
     31.497  0.1368E+00  0.1460E+00  0.9087E+01  0.9007E+01
     31.683  0.1367E+00  0.1506E+00  0.9112E+01  0.9034E+01
     31.869  0.1536E+00  0.1433E+00  0.9139E+01  0.9063E+01
     32.054  0.1372E+00  0.1431E+00  0.9167E+01  0.9089E+01
     32.240  0.1337E+00  0.1420E+00  0.9191E+01  0.9116E+01
     32.426  0.1370E+00  0.1554E+00  0.9216E+01  0.9144E+01
     32.612  0.1404E+00  0.1349E+00  0.9242E+01  0.9171E+01
     32.798  0.1440E+00  0.1373E+00  0.9269E+01  0.9197E+01
     32.984  0.1451E+00  0.1399E+00  0.9297E+01  0.9222E+01
     33.169  0.1502E+00  0.1382E+00  0.9324E+01  0.9250E+01
     33.355  0.1573E+00  0.1378E+00  0.9353E+01  0.9276E+01
     33.541  0.2099E+00  0.1396E+00  0.9385E+01  0.9301E+01
     33.727  0.3003E+00  0.1441E+00  0.9433E+01  0.9328E+01
     33.913  0.2834E+00  0.1509E+00  0.9498E+01  0.9355E+01
     34.099  0.2560E+00  0.1969E+00  0.9548E+01  0.9386E+01
     34.284  0.2241E+00  0.2671E+00  0.9593E+01  0.9429E+01
     34.470  0.2033E+00  0.3513E+00  0.9632E+01  0.9488E+01
     34.656  0.1706E+00  0.2951E+00  0.9666E+01  0.9547E+01
     34.842  0.1709E+00  0.2405E+00  0.9698E+01  0.9597E+01
     35.028  0.1664E+00  0.2181E+00  0.9729E+01  0.9640E+01
     35.214  0.1602E+00  0.1748E+00  0.9760E+01  0.9674E+01
     35.399  0.1537E+00  0.1693E+00  0.9789E+01  0.9706E+01
     35.585  0.1470E+00  0.1629E+00  0.9817E+01  0.9737E+01
     35.771  0.1489E+00  0.1565E+00  0.9844E+01  0.9767E+01
     35.957  0.1493E+00  0.1509E+00  0.9871E+01  0.9796E+01
     36.143  0.1874E+00  0.1450E+00  0.9906E+01  0.9823E+01
     36.329  0.1534E+00  0.1386E+00  0.9934E+01  0.9849E+01
     36.514  0.1450E+00  0.1654E+00  0.9962E+01  0.9875E+01
     36.700  0.3116E+00  0.1831E+00  0.9993E+01  0.9908E+01
     36.886  0.2252E+00  0.1516E+00  0.1003E+02  0.9940E+01
     37.072  0.2523E+00  0.1482E+00  0.1008E+02  0.9967E+01
     37.258  0.2958E+00  0.1431E+00  0.1013E+02  0.9994E+01
     37.444  0.3066E+00  0.2167E+00  0.1019E+02  0.1004E+02
     37.629  0.3174E+00  0.2443E+00  0.1024E+02  0.1008E+02
     37.815  0.3194E+00  0.2762E+00  0.1030E+02  0.1013E+02
     38.001  0.3127E+00  0.3121E+00  0.1036E+02  0.1018E+02
     38.187  0.2973E+00  0.3231E+00  0.1042E+02  0.1024E+02
     38.373  0.2951E+00  0.3215E+00  0.1047E+02  0.1030E+02
     38.559  0.2791E+00  0.3101E+00  0.1053E+02  0.1036E+02
     38.744  0.2564E+00  0.2955E+00  0.1058E+02  0.1042E+02
     38.930  0.2451E+00  0.2950E+00  0.1062E+02  0.1047E+02
     39.116  0.2363E+00  0.2827E+00  0.1067E+02  0.1053E+02
     39.302  0.2255E+00  0.2641E+00  0.1071E+02  0.1058E+02
     39.488  0.2199E+00  0.2509E+00  0.1075E+02  0.1062E+02
     39.673  0.2153E+00  0.2426E+00  0.1079E+02  0.1067E+02
     39.859  0.2240E+00  0.2350E+00  0.1084E+02  0.1071E+02
     40.045  0.2091E+00  0.2256E+00  0.1088E+02  0.1076E+02
     40.231  0.1912E+00  0.2217E+00  0.1091E+02  0.1080E+02
     40.417  0.1952E+00  0.2229E+00  0.1095E+02  0.1084E+02
     40.603  0.2042E+00  0.2258E+00  0.1099E+02  0.1089E+02
     40.788  0.2179E+00  0.1959E+00  0.1103E+02  0.1092E+02
     40.974  0.2340E+00  0.1983E+00  0.1107E+02  0.1096E+02
     41.160  0.2603E+00  0.2054E+00  0.1111E+02  0.1100E+02
     41.346  0.2729E+00  0.2167E+00  0.1116E+02  0.1104E+02
     41.532  0.2847E+00  0.2363E+00  0.1121E+02  0.1108E+02
     41.718  0.3158E+00  0.2519E+00  0.1127E+02  0.1112E+02
     41.903  0.3139E+00  0.2661E+00  0.1133E+02  0.1117E+02
     42.089  0.2855E+00  0.2785E+00  0.1139E+02  0.1122E+02
     42.275  0.2406E+00  0.3007E+00  0.1144E+02  0.1128E+02
     42.461  0.2165E+00  0.2924E+00  0.1148E+02  0.1133E+02
     42.647  0.2085E+00  0.2840E+00  0.1152E+02  0.1139E+02
     42.833  0.2005E+00  0.2559E+00  0.1156E+02  0.1144E+02
     43.018  0.1873E+00  0.2159E+00  0.1159E+02  0.1148E+02
     43.204  0.1805E+00  0.2022E+00  0.1163E+02  0.1152E+02
     43.390  0.1738E+00  0.1952E+00  0.1166E+02  0.1156E+02
     43.576  0.1673E+00  0.1883E+00  0.1169E+02  0.1159E+02
     43.762  0.1657E+00  0.1817E+00  0.1172E+02  0.1163E+02
     43.948  0.1697E+00  0.1752E+00  0.1175E+02  0.1166E+02
     44.133  0.1679E+00  0.1690E+00  0.1178E+02  0.1169E+02
     44.319  0.1711E+00  0.1708E+00  0.1182E+02  0.1173E+02
     44.505  0.2161E+00  0.1707E+00  0.1185E+02  0.1176E+02
     44.691  0.9301E-01  0.1627E+00  0.1187E+02  0.1179E+02
     44.877  0.6829E-01  0.1621E+00  0.1189E+02  0.1182E+02
     45.063  0.6346E-01  0.1445E+00  0.1190E+02  0.1185E+02
     45.248  0.5920E-01  0.1181E+00  0.1191E+02  0.1187E+02
     45.434  0.5509E-01  0.6815E-01  0.1192E+02  0.1189E+02
     45.620  0.5115E-01  0.6365E-01  0.1193E+02  0.1190E+02
     45.806  0.4736E-01  0.5932E-01  0.1194E+02  0.1191E+02
     45.992  0.4373E-01  0.5514E-01  0.1195E+02  0.1192E+02
     46.178  0.4026E-01  0.5114E-01  0.1196E+02  0.1193E+02
     46.363  0.3695E-01  0.4729E-01  0.1196E+02  0.1194E+02
     46.549  0.3380E-01  0.4361E-01  0.1197E+02  0.1195E+02
     46.735  0.2654E-01  0.4009E-01  0.1198E+02  0.1196E+02
     46.921  0.2423E-01  0.3673E-01  0.1198E+02  0.1196E+02
     47.107  0.2206E-01  0.2925E-01  0.1199E+02  0.1197E+02
     47.293  0.2002E-01  0.2674E-01  0.1199E+02  0.1198E+02
     47.478  0.1753E-01  0.2436E-01  0.1199E+02  0.1198E+02
     47.664  0.1049E-01  0.2213E-01  0.1200E+02  0.1199E+02
     47.850  0.5507E-02  0.2004E-01  0.1200E+02  0.1199E+02
     48.036  0.5060E-03  0.1597E-01  0.1200E+02  0.1199E+02
     48.222  0.0000E+00  0.1032E-01  0.1200E+02  0.1200E+02
     48.407  0.0000E+00  0.3698E-02  0.1200E+02  0.1200E+02
     48.593  0.0000E+00  0.1231E-02  0.1200E+02  0.1200E+02
     48.779  0.0000E+00  0.8752E-04  0.1200E+02  0.1200E+02
     48.965  0.0000E+00  0.0000E+00  0.1200E+02  0.1200E+02
     49.151  0.0000E+00  0.0000E+00  0.1200E+02  0.1200E+02
     49.337  0.0000E+00  0.0000E+00  0.1200E+02  0.1200E+02
     49.522  0.0000E+00  0.0000E+00  0.1200E+02  0.1200E+02
     49.708  0.0000E+00  0.0000E+00  0.1200E+02  0.1200E+02
     49.894  0.0000E+00  0.0000E+00  0.1200E+02  0.1200E+02
     50.080  0.0000E+00  0.0000E+00  0.1200E+02  0.1200E+02
     50.266  0.0000E+00  0.0000E+00  0.1200E+02  0.1200E+02
     50.452  0.0000E+00  0.0000E+00  0.1200E+02  0.1200E+02
     50.637  0.0000E+00  0.0000E+00  0.1200E+02  0.1200E+02
     50.823  0.0000E+00  0.0000E+00  0.1200E+02  0.1200E+02
     51.009  0.0000E+00  0.0000E+00  0.1200E+02  0.1200E+02
     51.195  0.0000E+00  0.0000E+00  0.1200E+02  0.1200E+02
     51.381  0.0000E+00  0.0000E+00  0.1200E+02  0.1200E+02
     51.38076124     -4.36813081  301      7.14144956      1.00000000
     -4.368  0.0000E+00  0.0000E+00  0.0000E+00  0.0000E+00  0.0000E+00  0.0000E+00  0.0000E+00  0.0000E+00  0.0000E+00  0.0000E+00  0.0000E+00  0.0000E+00  0.0000E+00  0.0000E+00  0.0000E+00  0.0000E+00  0.0000E+00  0.0000E+00
     -4.182  0.0000E+00  0.0000E+00  0.0000E+00  0.0000E+00  0.0000E+00  0.0000E+00  0.0000E+00  0.0000E+00  0.0000E+00  0.0000E+00  0.0000E+00  0.0000E+00  0.0000E+00  0.0000E+00  0.0000E+00  0.0000E+00  0.0000E+00  0.0000E+00
     -3.996  0.0000E+00  0.0000E+00  0.0000E+00  0.0000E+00  0.0000E+00  0.0000E+00  0.0000E+00  0.0000E+00  0.0000E+00  0.0000E+00  0.0000E+00  0.0000E+00  0.0000E+00  0.0000E+00  0.0000E+00  0.0000E+00  0.0000E+00  0.0000E+00
     -3.811  0.0000E+00  0.0000E+00  0.0000E+00  0.0000E+00  0.0000E+00  0.0000E+00  0.0000E+00  0.0000E+00  0.0000E+00  0.0000E+00  0.0000E+00  0.0000E+00  0.0000E+00  0.0000E+00  0.0000E+00  0.0000E+00  0.0000E+00  0.0000E+00
     -3.625  0.0000E+00  0.0000E+00  0.0000E+00  0.0000E+00  0.0000E+00  0.0000E+00  0.0000E+00  0.0000E+00  0.0000E+00  0.0000E+00  0.0000E+00  0.0000E+00  0.0000E+00  0.0000E+00  0.0000E+00  0.0000E+00  0.0000E+00  0.0000E+00
     -3.439  0.0000E+00  0.0000E+00  0.0000E+00  0.0000E+00  0.0000E+00  0.0000E+00  0.0000E+00  0.0000E+00  0.0000E+00  0.0000E+00  0.0000E+00  0.0000E+00  0.0000E+00  0.0000E+00  0.0000E+00  0.0000E+00  0.0000E+00  0.0000E+00
     -3.253  0.0000E+00  0.0000E+00  0.0000E+00  0.0000E+00  0.0000E+00  0.0000E+00  0.0000E+00  0.0000E+00  0.0000E+00  0.0000E+00  0.0000E+00  0.0000E+00  0.0000E+00  0.0000E+00  0.0000E+00  0.0000E+00  0.0000E+00  0.0000E+00
     -3.067  0.0000E+00  0.0000E+00  0.0000E+00  0.0000E+00  0.0000E+00  0.0000E+00  0.0000E+00  0.0000E+00  0.0000E+00  0.0000E+00  0.0000E+00  0.0000E+00  0.0000E+00  0.0000E+00  0.0000E+00  0.0000E+00  0.0000E+00  0.0000E+00
     -2.881  0.0000E+00  0.0000E+00  0.0000E+00  0.0000E+00  0.0000E+00  0.0000E+00  0.0000E+00  0.0000E+00  0.0000E+00  0.0000E+00  0.0000E+00  0.0000E+00  0.0000E+00  0.0000E+00  0.0000E+00  0.0000E+00  0.0000E+00  0.0000E+00
     -2.696  0.0000E+00  0.0000E+00  0.0000E+00  0.0000E+00  0.0000E+00  0.0000E+00  0.0000E+00  0.0000E+00  0.0000E+00  0.0000E+00  0.0000E+00  0.0000E+00  0.0000E+00  0.0000E+00  0.0000E+00  0.0000E+00  0.0000E+00  0.0000E+00
     -2.510  0.0000E+00  0.0000E+00  0.0000E+00  0.0000E+00  0.0000E+00  0.0000E+00  0.0000E+00  0.0000E+00  0.0000E+00  0.0000E+00  0.0000E+00  0.0000E+00  0.0000E+00  0.0000E+00  0.0000E+00  0.0000E+00  0.0000E+00  0.0000E+00
     -2.324  0.0000E+00  0.0000E+00  0.0000E+00  0.0000E+00  0.0000E+00  0.0000E+00  0.0000E+00  0.0000E+00  0.0000E+00  0.0000E+00  0.0000E+00  0.0000E+00  0.0000E+00  0.0000E+00  0.0000E+00  0.0000E+00  0.0000E+00  0.0000E+00
     -2.138  0.0000E+00  0.0000E+00  0.0000E+00  0.0000E+00  0.0000E+00  0.0000E+00  0.0000E+00  0.0000E+00  0.0000E+00  0.0000E+00  0.0000E+00  0.0000E+00  0.0000E+00  0.0000E+00  0.0000E+00  0.0000E+00  0.0000E+00  0.0000E+00
     -1.952  0.0000E+00  0.0000E+00  0.0000E+00  0.0000E+00  0.0000E+00  0.0000E+00  0.0000E+00  0.0000E+00  0.0000E+00  0.0000E+00  0.0000E+00  0.0000E+00  0.0000E+00  0.0000E+00  0.0000E+00  0.0000E+00  0.0000E+00  0.0000E+00
     -1.767  0.8761E-02  0.0000E+00  0.9449E-04  0.0000E+00  0.6427E-04  0.0000E+00  0.4060E-03  0.0000E+00  0.2871E-04  0.0000E+00  0.7458E-05  0.0000E+00  0.1032E-04  0.0000E+00  0.7111E-05  0.0000E+00  0.1156E-04  0.0000E+00
     -1.581  0.1307E-01  0.0000E+00  0.2045E-03  0.0000E+00  0.1288E-03  0.0000E+00  0.7205E-03  0.0000E+00  0.6946E-04  0.0000E+00  0.2020E-04  0.0000E+00  0.2577E-04  0.0000E+00  0.1533E-04  0.0000E+00  0.2869E-04  0.0000E+00
     -1.395  0.1658E-01  0.8878E-02  0.3174E-03  0.9859E-04  0.1820E-03  0.6658E-04  0.1070E-02  0.4133E-03  0.1205E-03  0.2264E-04  0.3830E-04  0.6172E-05  0.4736E-04  0.7945E-05  0.2365E-04  0.5892E-05  0.5511E-04  0.9311E-05
     -1.209  0.1930E-01  0.1307E-01  0.4332E-03  0.2074E-03  0.2238E-03  0.1296E-03  0.1455E-02  0.7217E-03  0.1818E-03  0.5288E-04  0.6176E-04  0.1557E-04  0.7508E-04  0.1910E-04  0.3209E-04  0.1220E-04  0.9081E-04  0.2203E-04
     -1.023  0.2364E-01  0.1646E-01  0.6413E-03  0.3191E-03  0.3286E-03  0.1817E-03  0.2019E-02  0.1063E-02  0.2815E-03  0.9027E-04  0.1258E-03  0.2830E-04  0.1194E-03  0.3447E-04  0.5169E-04  0.1844E-04  0.1473E-03  0.4112E-04
     -0.837  0.2765E-01  0.1906E-01  0.8912E-03  0.4335E-03  0.4821E-03  0.2229E-03  0.2592E-02  0.1438E-02  0.4176E-03  0.1348E-03  0.2463E-03  0.4436E-04  0.1818E-03  0.5406E-04  0.8968E-04  0.2460E-04  0.2261E-03  0.6659E-04
     -0.652  0.3033E-01  0.2320E-01  0.1149E-02  0.6372E-03  0.6610E-03  0.3250E-03  0.3106E-02  0.1981E-02  0.5817E-03  0.2059E-03  0.4158E-03  0.8721E-04  0.2597E-03  0.8429E-04  0.1441E-03  0.3876E-04  0.3242E-03  0.1058E-03
     -0.466  0.2971E-01  0.2701E-01  0.1393E-02  0.8809E-03  0.8915E-03  0.4744E-03  0.3645E-02  0.2530E-02  0.8238E-03  0.2992E-03  0.6786E-03  0.1660E-03  0.4073E-03  0.1246E-03  0.2486E-03  0.6509E-04  0.5481E-03  0.1586E-03
     -0.280  0.3219E-01  0.2952E-01  0.1632E-02  0.1132E-02  0.1079E-02  0.6482E-03  0.4301E-02  0.3020E-02  0.1227E-02  0.4088E-03  0.8818E-03  0.2754E-03  0.6404E-03  0.1729E-03  0.3519E-03  0.1019E-03  0.7535E-03  0.2228E-03
     -0.094  0.3483E-01  0.2845E-01  0.1880E-02  0.1368E-02  0.1275E-02  0.8766E-03  0.5035E-02  0.3486E-02  0.1713E-02  0.5501E-03  0.1121E-02  0.4476E-03  0.9279E-03  0.2542E-03  0.4796E-03  0.1710E-03  0.9946E-03  0.3649E-03
      0.092  0.3763E-01  0.3054E-01  0.2138E-02  0.1594E-02  0.1479E-02  0.1052E-02  0.5845E-02  0.4072E-02  0.2282E-02  0.7915E-03  0.1395E-02  0.5699E-03  0.1270E-02  0.3805E-03  0.6317E-03  0.2349E-03  0.1271E-02  0.4925E-03
      0.278  0.4058E-01  0.3273E-01  0.2405E-02  0.1828E-02  0.1692E-02  0.1235E-02  0.6734E-02  0.4722E-02  0.2933E-02  0.1077E-02  0.1704E-02  0.7111E-03  0.1666E-02  0.5333E-03  0.8080E-03  0.3122E-03  0.1584E-02  0.6402E-03
      0.463  0.4368E-01  0.3504E-01  0.2682E-02  0.2070E-02  0.1914E-02  0.1425E-02  0.7699E-02  0.5435E-02  0.3667E-02  0.1408E-02  0.2049E-02  0.8710E-03  0.2117E-02  0.7125E-03  0.1009E-02  0.4029E-03  0.1932E-02  0.8079E-03
      0.649  0.4740E-01  0.3744E-01  0.3135E-02  0.2320E-02  0.2371E-02  0.1621E-02  0.8941E-02  0.6213E-02  0.4957E-02  0.1783E-02  0.3127E-02  0.1050E-02  0.2995E-02  0.9182E-03  0.1549E-02  0.5069E-03  0.2499E-02  0.9958E-03
      0.835  0.5293E-01  0.3995E-01  0.3780E-02  0.2577E-02  0.3051E-02  0.1825E-02  0.1081E-01  0.7054E-02  0.7289E-02  0.2202E-02  0.5141E-02  0.1247E-02  0.4722E-02  0.1150E-02  0.2331E-02  0.6242E-03  0.3615E-02  0.1204E-02
      1.021  0.5751E-01  0.4170E-01  0.4293E-02  0.2804E-02  0.3668E-02  0.2048E-02  0.1297E-01  0.7903E-02  0.1028E-01  0.2682E-02  0.7557E-02  0.1529E-02  0.7133E-02  0.1440E-02  0.3259E-02  0.8306E-03  0.5172E-02  0.1432E-02
      1.207  0.6321E-01  0.4512E-01  0.4677E-02  0.3304E-02  0.4094E-02  0.2560E-02  0.1592E-01  0.9168E-02  0.1655E-01  0.3680E-02  0.1109E-01  0.2401E-02  0.1195E-01  0.2069E-02  0.4300E-02  0.1180E-02  0.7559E-02  0.1888E-02
      1.393  0.7350E-01  0.4791E-01  0.5258E-02  0.3734E-02  0.4619E-02  0.3053E-02  0.1963E-01  0.1056E-01  0.2887E-01  0.4870E-02  0.1710E-01  0.3428E-02  0.2114E-01  0.2897E-02  0.5470E-02  0.1573E-02  0.1086E-01  0.2521E-02
      1.578  0.1026E+00  0.4961E-01  0.6150E-02  0.4027E-02  0.5693E-02  0.3467E-02  0.2581E-01  0.1200E-01  0.7892E-01  0.6313E-02  0.4268E-01  0.4578E-02  0.5776E-01  0.3971E-02  0.7006E-02  0.2000E-02  0.2117E-01  0.3332E-02
      1.764  0.1021E+00  0.5160E-01  0.6466E-02  0.4272E-02  0.6964E-02  0.3819E-02  0.3037E-01  0.1358E-01  0.8540E-01  0.8394E-02  0.5619E-01  0.5928E-02  0.1002E+00  0.5467E-02  0.1005E-01  0.2450E-02  0.5461E-01  0.4301E-02
      1.950  0.1011E+00  0.5553E-01  0.6817E-02  0.4630E-02  0.7676E-02  0.4199E-02  0.3700E-01  0.1548E-01  0.9498E-01  0.1174E-01  0.6704E-01  0.7715E-02  0.1393E+00  0.7719E-02  0.1441E-01  0.2919E-02  0.8095E-01  0.5436E-02
      2.136  0.1106E+00  0.6008E-01  0.8981E-02  0.5001E-02  0.1025E-01  0.4603E-02  0.5920E-01  0.1759E-01  0.1298E+00  0.1621E-01  0.8583E-01  0.9968E-02  0.2615E+00  0.1074E-01  0.2925E-01  0.3442E-02  0.1409E+00  0.6763E-02
      2.322  0.8363E-01  0.6517E-01  0.9252E-02  0.5377E-02  0.9111E-02  0.5033E-02  0.5745E-01  0.1991E-01  0.1150E+00  0.2174E-01  0.8581E-01  0.1267E-01  0.2697E+00  0.1448E-01  0.4036E-01  0.4023E-02  0.1501E+00  0.8281E-02
      2.508  0.5081E-01  0.7079E-01  0.8148E-02  0.5759E-02  0.6691E-02  0.5490E-02  0.3748E-01  0.2244E-01  0.8458E-01  0.2832E-01  0.9546E-01  0.1583E-01  0.1564E+00  0.1894E-01  0.5051E-01  0.4662E-02  0.1189E+00  0.9990E-02
      2.693  0.2635E-01  0.1002E+00  0.6858E-02  0.7006E-02  0.4061E-02  0.7566E-02  0.2043E-01  0.3043E-01  0.5030E-01  0.6842E-01  0.8815E-01  0.4876E-01  0.7242E-01  0.4724E-01  0.4498E-01  0.6525E-02  0.9321E-01  0.2227E-01
      2.879  0.9319E-02  0.9570E-01  0.6354E-02  0.6894E-02  0.2090E-02  0.8777E-02  0.1359E-01  0.3556E-01  0.1693E-01  0.7321E-01  0.5830E-01  0.5418E-01  0.4520E-01  0.5698E-01  0.2421E-01  0.1002E-01  0.9066E-01  0.2656E-01
      3.065  0.3437E-02  0.8971E-01  0.1132E-01  0.6368E-02  0.4174E-02  0.8677E-02  0.1416E-01  0.3985E-01  0.1741E-01  0.7870E-01  0.5327E-01  0.5998E-01  0.6801E-01  0.7169E-01  0.3909E-01  0.1323E-01  0.1141E+00  0.4479E-01
      3.251  0.1567E-02  0.8081E-01  0.3426E-01  0.6599E-02  0.2747E-01  0.8597E-02  0.1995E-01  0.4393E-01  0.2924E+00  0.7929E-01  0.1580E+00  0.6026E-01  0.1350E+00  0.1163E+00  0.4520E+00  0.1720E-01  0.1647E+00  0.7914E-01
      3.437  0.2979E-02  0.7641E-01  0.2817E-01  0.7828E-02  0.1774E-01  0.8557E-02  0.1725E-01  0.5874E-01  0.1779E+00  0.8540E-01  0.2309E+00  0.6089E-01  0.1364E+00  0.1907E+00  0.4662E+00  0.2318E-01  0.1707E+00  0.1389E+00
      3.623  0.4843E-02  0.6197E-01  0.1660E-01  0.9506E-02  0.9683E-02  0.9409E-02  0.9384E-02  0.5490E-01  0.1083E+00  0.8266E-01  0.1216E+00  0.7279E-01  0.1007E+00  0.2075E+00  0.2569E+00  0.3157E-01  0.9977E-01  0.1201E+00
      3.808  0.8337E-02  0.3818E-01  0.1908E-01  0.8792E-02  0.2002E-01  0.7500E-02  0.9582E-02  0.3023E-01  0.1407E+00  0.5893E-01  0.9626E-01  0.7356E-01  0.6395E-01  0.1146E+00  0.1783E+00  0.3318E-01  0.5216E-01  0.7492E-01
      3.994  0.1248E-01  0.2249E-01  0.2945E-01  0.7869E-02  0.3221E-01  0.5129E-02  0.1845E-01  0.1980E-01  0.1676E+00  0.3747E-01  0.1461E+00  0.6504E-01  0.5306E-01  0.6202E-01  0.1656E+00  0.3068E-01  0.6996E-01  0.6412E-01
      4.180  0.1950E-01  0.7414E-02  0.4314E-01  0.7520E-02  0.3992E-01  0.2980E-02  0.3302E-01  0.1417E-01  0.2410E+00  0.9740E-02  0.2522E+00  0.4720E-01  0.6588E-01  0.4136E-01  0.1996E+00  0.1056E-01  0.1120E+00  0.6384E-01
      4.366  0.2961E-01  0.2457E-03  0.6538E-01  0.1070E-01  0.4561E-01  0.2757E-02  0.5699E-01  0.8070E-02  0.3895E+00  0.7680E-02  0.3627E+00  0.3786E-02  0.8352E-01  0.5225E-01  0.3558E+00  0.1126E-01  0.1871E+00  0.8901E-01
      4.552  0.1514E-01  0.8474E-03  0.3543E-01  0.4108E-01  0.2689E-01  0.3369E-01  0.2388E-01  0.2045E-01  0.1352E+00  0.2525E+00  0.1513E+00  0.7932E-01  0.3132E-01  0.1174E+00  0.1934E+00  0.3298E+00  0.8955E-01  0.1324E+00
      4.738  0.8652E-02  0.2047E-02  0.2374E-01  0.3936E-01  0.1727E-01  0.2523E-01  0.1411E-01  0.2002E-01  0.5459E-01  0.2208E+00  0.8251E-01  0.1868E+00  0.1543E-01  0.1182E+00  0.8720E-01  0.4449E+00  0.6000E-01  0.1368E+00
      4.923  0.5998E-02  0.3511E-02  0.1880E-01  0.3934E-01  0.1359E-01  0.2019E-01  0.1069E-01  0.2182E-01  0.4676E-01  0.1356E+00  0.7610E-01  0.2027E+00  0.1362E-01  0.1109E+00  0.7862E-01  0.3751E+00  0.4900E-01  0.1442E+00