    1    1    1    2
  0.1006182E+02  0.2355589E-09  0.2355589E-09  0.2355589E-09  0.5000000E-15
  1.000000000000000E-004
  CAR 
 Fe BCC                                  
      8     26     12
 
  0.6250000E-01  0.6250000E-01  0.6250000E-01  0.1562500E-01
    1       -1.157440     -0.785602   1.000000   1.000000
    2        4.269235      5.790091   1.000000   1.000000
    3        4.269235      5.790091   1.000000   1.000000
    4        5.259085      6.854093   1.000000   0.824003
    5        6.070590      8.115274   1.000000  -0.000466
    6        6.070590      8.115274   1.002725   0.000000
    7       29.709914     30.182232   0.000000   0.000000
    8       29.709914     30.182232   0.000000   0.000000
    9       34.060365     34.223216   0.000000   0.000000
   10       34.927817     35.704621   0.000000   0.000000
   11       40.206241     40.652428   0.000000   0.000000
   12       40.206241     40.652428   0.000000   0.000000
 
  0.1875000E+00  0.6250000E-01  0.6250000E-01  0.4687500E-01
    1        0.556157      1.003763   1.000000   1.000000
    2        3.759837      5.218061   1.000000   1.000000
    3        4.018215      5.443821   1.000000   1.000000
    4        5.983871      7.965064   1.000000  -0.071475
    5        6.230654      8.135406   1.002103  -0.000314
    6        6.501043      8.304656   0.842429   0.000000
    7       24.327145     25.057772   0.000000   0.000000
    8       27.337581     27.871741   0.000000   0.000000
    9       30.651021     31.362156   0.000000   0.000000
   10       34.681526     34.989170   0.000000   0.000000
   11       39.938495     40.605245   0.000000   0.000000
   12       40.804123     41.240911   0.000000   0.000000
 
  0.3125000E+00  0.6250000E-01  0.6250000E-01  0.4687500E-01
    1        1.669603      2.568049   1.000000   1.000000
    2        3.327242      4.732187   1.000000   1.000000
    3        4.910666      5.906847   1.000000   1.000000
    4        6.154979      8.113770   1.000000  -0.001869
    5        6.360905      8.469751   1.031070   0.000000
    6        8.151614      9.714237  -0.017360   0.000000
    7       18.744436     19.695223   0.000000   0.000000
    8       25.495800     25.998282   0.000000   0.000000
    9       28.016213     28.665764   0.000000   0.000000
   10       34.405038     34.892920   0.000000   0.000000
   11       39.238611     39.906959   0.000000   0.000000
   12       44.232852     44.629747   0.000000   0.000000
 
  0.4375000E+00  0.6250000E-01  0.6250000E-01  0.2343750E-01
    1        1.681151      2.789039   1.000000   1.000000
    2        3.161944      4.547122   1.000000   1.000000
    3        6.058182      6.971633   1.000000   1.000000
    4        6.239706      8.206274   1.000000   0.000000
    5        6.415366      8.541218   1.052365   0.000000
    6        9.523419     10.789427  -0.003990   0.000000
    7       15.625118     16.802857   0.000000   0.000000
    8       24.802341     25.280569   0.000000   0.000000
    9       27.026107     27.638354   0.000000   0.000000
   10       34.242934     34.788099   0.000000   0.000000
   11       39.191902     39.885958   0.000000   0.000000
   12       43.893287     44.208438   0.000000   0.000000
 
 -0.6250000E-01  0.6250000E-01  0.6250000E-01  0.1171875E-01
    1       -1.834090     -1.470165   1.000000   1.000000
    2        4.523896      6.072608   1.000000   1.000000
    3        4.523897      6.072608   1.000000   1.000000
    4        4.633554      6.198071   1.000000   1.031810
    5        5.974479      8.009140   1.000000  -0.001125
    6        6.231084      8.311042   1.000000   0.000000
    7       31.435678     31.738117   0.000000   0.000000
    8       32.895753     33.153705   0.000000   0.000000
    9       32.895753     33.153705   0.000000   0.000000
   10       36.943430     37.452153   0.000000   0.000000
   11       39.696667     40.443697   0.000000   0.000000
   12       39.696667     40.443697   0.000000   0.000000
 
  0.1875000E+00  0.1875000E+00  0.6250000E-01  0.4687500E-01
    1        2.116538      2.796591   1.000000   1.000000
    2        3.414128      4.794593   1.000000   1.000000
    3        3.660868      4.960286   1.000000   1.000000
    4        6.084833      8.071566   1.000000  -0.002558
    5        6.396326      8.478563   1.001734   0.000000
    6        8.407827      9.958364  -0.035367   0.000000
    7       21.645530     22.462999   0.000000   0.000000
    8       22.666191     23.365039   0.000000   0.000000
    9       26.948504     27.584302   0.000000   0.000000
   10       36.772997     37.071128   0.000000   0.000000
   11       41.138594     41.633088   0.000000   0.000000
   12       43.739824     44.243645   0.000000   0.000000
 
  0.3125000E+00  0.1875000E+00  0.6250000E-01  0.9375000E-01
    1        2.421244      3.548922   1.000000   1.000000
    2        3.209198      4.543350   1.000000   1.000000
    3        4.414639      5.508162   1.000000   1.000000
    4        6.260106      8.252391   1.000000   0.000000
    5        6.506864      8.574436   1.011035   0.000000
    6       11.046174     12.294242  -0.002368   0.000000
    7       16.943615     17.939011   0.000000   0.000000
    8       20.935959     21.657003   0.000000   0.000000
    9       25.482139     26.093761   0.000000   0.000000
   10       37.319123     37.708566   0.000000   0.000000
   11       42.013224     42.399419   0.000000   0.000000
   12       44.564091     45.144885   0.000000   0.000000
 
 -0.1875000E+00  0.1875000E+00  0.6250000E-01  0.4687500E-01
    1       -0.533079     -0.144290   1.000000   1.000000
    2        4.188647      5.695475   1.000000   1.000000
    3        4.426862      5.936828   1.000000   1.000000
    4        5.387720      6.999239   1.000000   0.653783
    5        5.659498      7.606265   1.000000   0.000068
    6        6.357694      8.446198   1.005054   0.000000
    7       27.219336     27.840282   0.000000   0.000000
    8       30.574235     30.969874   0.000000   0.000000
    9       31.805684     32.338579   0.000000   0.000000
   10       36.298500     36.803880   0.000000   0.000000
   11       36.671033     37.318660   0.000000   0.000000
   12       38.260724     38.811994   0.000000   0.000000
 
  0.3125000E+00  0.3125000E+00  0.6250000E-01  0.1562500E-01
    1        2.779967      4.037844   1.000000   1.000000
    2        3.650756      4.859968   1.000000   1.000000
    3        3.650756      4.859968   1.000000   1.000000
    4        6.433809      8.457069   1.000000   0.000000
    5        6.433809      8.457069   1.008662   0.000000
    6       14.797258     15.827767   0.000000   0.000000
    7       14.797258     15.827767   0.000000   0.000000
    8       17.798756     18.628750   0.000000   0.000000
    9       24.972668     25.605726   0.000000   0.000000
   10       39.899244     40.255212   0.000000   0.000000
   11       39.899244     40.255212   0.000000   0.000000
   12       48.166833     48.846721   0.000000   0.000000
 
 -0.3125000E+00  0.3125000E+00  0.6250000E-01  0.4687500E-01
    1        1.162699      1.793979   1.000000   1.000000
    2        3.695390      5.146198   1.000000   1.000000
    3        4.488621      5.759241   1.000000   1.000000
    4        5.890686      7.746469   1.000000  -0.036917
    5        6.568337      8.338360   1.009106  -0.000723
    6        6.633598      8.612487   0.639079   0.000000
    7       21.395928     22.253234   0.000000   0.000000
    8       27.980500     28.365893   0.000000   0.000000
    9       29.881682     30.558658   0.000000   0.000000
   10       34.497980     35.115072   0.000000   0.000000
   11       36.687408     37.309141   0.000000   0.000000
   12       39.559495     40.032443   0.000000   0.000000
 
 -0.1875000E+00  0.3125000E+00  0.6250000E-01  0.4687500E-01
    1        1.013381      1.511544   1.000000   1.000000
    2        3.924854      5.424111   1.000000   1.000000
    3        4.167799      5.603178   1.000000   1.000012
    4        5.483811      7.323128   1.000000   0.106340
    5        6.321161      8.028269   1.004831  -0.001011
    6        6.782891      8.767554   0.665452   0.000000
    7       24.345281     25.115011   0.000000   0.000000
    8       25.594709     26.237335   0.000000   0.000000
    9       32.105185     32.600913   0.000000   0.000000
   10       32.837678     33.396514   0.000000   0.000000
   11       36.733452     37.286651   0.000000   0.000000
   12       41.626611     42.123053   0.000000   0.000000
 
 -0.4375000E+00  0.4375000E+00  0.6250000E-01  0.4687500E-01
    1        1.548842      2.612536   1.000000   1.000000
    2        3.363340      4.779144   1.000000   1.000000
    3        5.453999      6.702223   1.000000   1.000000
    4        6.117645      8.014049   1.000000  -0.003445
    5        7.645288      9.226440   0.185411   0.000000
    6        7.843153      9.442737   0.002349   0.000000
    7       16.534374     17.642944   0.000000   0.000000
    8       26.467143     26.820156   0.000000   0.000000
    9       28.160870     28.794895   0.000000   0.000000
   10       33.740470     34.408911   0.000000   0.000000
   11       37.132779     37.830616   0.000000   0.000000
   12       41.048057     41.440277   0.000000   0.000000
 
 -0.3125000E+00  0.4375000E+00  0.6250000E-01  0.9375000E-01
    1        2.065368      3.008175   1.000000   1.000000
    2        3.547882      4.956319   1.000000   1.000000
    3        4.249574      5.540562   1.000000   1.000176
    4        5.851159      7.669636   1.000000  -0.016453
    5        6.819960      8.715499   0.978764  -0.000073
    6        8.691110     10.199481  -0.038738   0.000000
    7       19.113142     20.042793   0.000000   0.000000
    8       23.155434     23.847548   0.000000   0.000000
    9       30.003230     30.494175   0.000000   0.000000
   10       33.412824     33.993997   0.000000   0.000000
   11       37.264182     37.787921   0.000000   0.000000
   12       42.333758     42.915086   0.000000   0.000000
 
 -0.4375000E+00 -0.4375000E+00  0.6250000E-01  0.4687500E-01
    1        2.060193      3.231084   1.000000   1.000000
    2        3.529380      4.935006   1.000000   1.000000
    3        4.467752      5.759308   1.000000   1.000234
    4        5.992044      7.849201   1.000000  -0.001066
    5        7.219037      9.036431   0.556838   0.000000
    6       10.736031     11.896071  -0.001345   0.000000
    7       15.687555     16.825963   0.000000   0.000000
    8       22.394956     23.075324   0.000000   0.000000
    9       29.060460     29.526544   0.000000   0.000000
   10       33.887280     34.539450   0.000000   0.000000
   11       37.995905     38.402975   0.000000   0.000000
   12       41.650147     42.287186   0.000000   0.000000
 
 -0.3125000E+00 -0.4375000E+00  0.6250000E-01  0.4687500E-01
    1        2.881505      4.084338   1.000000   1.000000
    2        3.189230      4.540103   1.000000   1.000000
    3        3.840853      5.173096   1.000000   1.000692
    4        6.215307      8.038476   1.000012  -0.001525
    5        6.777145      8.630884   1.037937   0.000000
    6       12.204823     13.390688  -0.000281   0.000000
    7       16.925488     17.934545   0.000000   0.000000
    8       18.591665     19.380981   0.000000   0.000000
    9       30.622629     31.179723   0.000000   0.000000
   10       33.575542     34.064462   0.000000   0.000000
   11       35.981691     36.466390   0.000000   0.000000
   12       44.501389     45.283488   0.000000   0.000000
 
  0.1875000E+00  0.1875000E+00  0.1875000E+00  0.1562500E-01
    1        3.189021      4.296222   1.000000   1.000000
    2        3.189021      4.487401   1.000000   1.000000
    3        3.422190      4.487401   1.000000   1.000000
    4        6.378157      8.470850   1.000000   0.000000
    5        6.378157      8.470850   1.000000   0.000000
    6       11.094416     12.401602  -0.003244   0.000000
    7       19.893508     20.720088   0.000000   0.000000
    8       19.893508     20.720088   0.000000   0.000000
    9       21.799618     22.429944   0.000000   0.000000
   10       41.646679     41.815369   0.000000   0.000000
   11       44.910080     45.328338   0.000000   0.000000
   12       44.910080     45.328338   0.000000   0.000000
 
  0.3125000E+00  0.1875000E+00  0.1875000E+00  0.2343750E-01
    1        3.058488      4.240595   1.000000   1.000000
    2        3.141036      4.408636   1.000000   1.000000
    3        3.931755      5.061465   1.000000   1.000000
    4        6.420134      8.513607   1.000000   0.000000
    5        6.448079      8.580302   1.000090   0.000000
    6       14.018272     15.044966   0.000000   0.000000
    7       16.159130     17.149065   0.000000   0.000000
    8       19.286939     20.112625   0.000000   0.000000
    9       20.728503     21.367326   0.000000   0.000000
   10       42.926708     43.191311   0.000000   0.000000
   11       46.652590     46.987556   0.000000   0.000000
   12       47.431626     47.949385   0.000000   0.000000
 
 -0.1875000E+00  0.1875000E+00  0.1875000E+00  0.1171875E-01
    1        0.592126      1.034645   1.000000   1.000000
    2        4.666659      6.212591   1.000000   1.000000
    3        4.698807      6.212591   1.000000   1.000019
    4        4.698807      6.478000   1.000000   1.168073
    5        5.402142      7.021600   1.000000   0.023370
    6        6.803416      8.858996   0.803138   0.000000
    7       27.117660     27.769290   0.000000   0.000000
    8       28.732936     29.416302   0.000000   0.000000
    9       28.732936     29.416302   0.000000   0.000000
   10       30.713789     31.172666   0.000000   0.000000
   11       40.682982     41.138917   0.000000   0.000000
   12       40.682982     41.138917   0.000000   0.000000
 
 -0.3125000E+00  0.3125000E+00  0.1875000E+00  0.4687500E-01
    1        1.949496      2.679599   1.000000   1.000000
    2        3.701595      5.259216   1.000000   1.000000
    3        4.523378      6.015274   1.000000   1.008881
    4        5.354714      6.978461   1.000000   0.491449
    5        6.486669      8.178373   1.044334  -0.000863
    6        7.743640      9.496521   0.030701   0.000000
    7       22.279191     23.111988   0.000000   0.000000
    8       25.996589     26.704901   0.000000   0.000000
    9       26.862813     27.489969   0.000000   0.000000
   10       31.279812     31.816398   0.000000   0.000000
   11       39.753097     40.334987   0.000000   0.000000
   12       41.701891     42.241646   0.000000   0.000000
 
 -0.4375000E+00  0.4375000E+00  0.1875000E+00  0.4687500E-01
    1        2.182007      3.378505   1.000000   1.000000
    2        3.621190      4.981003   1.000000   1.000000
    3        4.277815      5.744841   1.000000   1.020183
    4        5.640477      7.350413   1.000042   0.002061
    5        7.543360      9.331379   0.055804   0.000000
    6       10.335307     11.529754  -0.008686   0.000000
    7       16.997525     18.013554   0.000000   0.000000
    8       24.223993     24.887850   0.000000   0.000000
    9       25.962724     26.598766   0.000000   0.000000
   10       33.758899     34.267399   0.000000   0.000000
   11       38.761724     39.367492   0.000000   0.000000
   12       39.753311     40.406418   0.000000   0.000000
 
 -0.3125000E+00  0.4375000E+00  0.1875000E+00  0.4687500E-01
    1        2.585553      3.682182   1.000000   1.000000
    2        2.930972      4.418840   1.000000   1.000000
    3        4.623024      6.111416   1.000000   1.029675
    4        5.836316      7.472976   1.000422  -0.015195
    5        7.019983      8.776176   0.747113  -0.000080
    6       10.287895     11.566821  -0.010678   0.000000
    7       19.957436     20.873308   0.000000   0.000000
    8       20.724581     21.449078   0.000000   0.000000
    9       28.399089     29.082050   0.000000   0.000000
   10       30.198204     30.735932   0.000000   0.000000
   11       38.483629     39.088989   0.000000   0.000000
   12       42.042134     42.763423   0.000000   0.000000
 
 -0.4375000E+00 -0.4375000E+00  0.1875000E+00  0.4687500E-01
    1        2.494077      3.856490   1.000000   1.000000
    2        2.953762      4.321912   1.000000   1.000000
    3        4.381293      5.817596   1.000001   1.049841
    4        6.225028      7.903228   1.001098  -0.001172
    5        7.301959      9.068788   0.150576   0.000000
    6       13.436603     14.453006   0.000000   0.000000
    7       16.041290     17.042346   0.000000   0.000000
    8       19.608934     20.367389   0.000000   0.000000
    9       28.439246     29.085796   0.000000   0.000000
   10       31.678662     32.242011   0.000000   0.000000
   11       36.156804     36.804539   0.000000   0.000000
   12       40.943582     41.659299   0.000000   0.000000
 
 -0.3125000E+00  0.3125000E+00  0.3125000E+00  0.1171875E-01
    1        2.339210      3.407370   1.000000   1.000000
    2        2.874223      4.431589   1.000000   1.000000
    3        5.639743      7.187454   1.000001   0.786440
    4        5.639743      7.187454   1.001334   0.163265
    5        6.531212      8.238022   1.135564  -0.000251
    6        9.600734     10.910116  -0.015022   0.000000
    7       22.790288     23.480084   0.000000   0.000000
    8       22.790288     23.480084   0.000000   0.000000
    9       24.928043     25.879170   0.000000   0.000000
   10       27.390890     27.986445   0.000000   0.000000
   11       40.422163     41.153880   0.000000   0.000000
   12       44.789446     45.362541   0.000000   0.000000
 
 -0.4375000E+00  0.4375000E+00  0.3125000E+00  0.4687500E-01
    1        2.169778      3.531348   1.000000   1.000000
    2        2.329918      3.744165   1.000000   1.000000
    3        5.812065      7.389892   1.006476   0.469711
    4        6.162745      7.756925   1.040961  -0.011284
    5        7.402518      9.178057   0.042497   0.000000
    6       12.905436     13.853598   0.000000   0.000000
    7       18.087446     18.888960   0.000000   0.000000
    8       20.751747     21.372194   0.000000   0.000000
    9       25.224851     26.128247   0.000000   0.000000
   10       28.270803     28.960755   0.000000   0.000000
   11       35.729201     36.495343   0.000000   0.000000
   12       44.252426     44.797743   0.000000   0.000000
 
 -0.4375000E+00 -0.4375000E+00  0.3125000E+00  0.1562500E-01
    1        1.995091      3.400233   1.000000   1.000000
    2        1.995091      3.400233   1.000000   1.000000
    3        5.941456      7.505522   1.019509   0.257984
    4        7.203070      8.939021   0.828654   0.000000
    5        7.203070      8.939021   0.051049   0.000000
    6       16.501281     17.281416   0.000000   0.000000
    7       16.501281     17.281416   0.000000   0.000000
    8       17.835870     18.489756   0.000000   0.000000
    9       26.699490     27.523798   0.000000   0.000000
   10       26.699490     27.523798   0.000000   0.000000
   11       33.296603     34.080383   0.000000   0.000000
   12       44.877839     45.415445   0.000000   0.000000
 
 -0.4375000E+00  0.4375000E+00  0.4375000E+00  0.1171875E-01
    1        1.670397      3.064037   1.000000   1.000000
    2        1.677673      3.088146   1.000000   1.000000
    3        7.150624      8.874925   0.887647  -0.048929
    4        7.150624      8.874925   0.660391   0.000000
    5        7.359870      9.136124   0.010846   0.000000
    6       15.802974     16.448755   0.000000   0.000000
    7       18.453991     18.960156   0.000000   0.000000
    8       18.453991     18.960156   0.000000   0.000000
    9       24.154237     25.264426   0.000000   0.000000
   10       25.388712     26.330556   0.000000   0.000000
   11       31.730909     32.536519   0.000000   0.000000
   12       47.931271     48.376178   0.000000   0.000000
