 running on    4 total cores
 distrk:  each k-point on    4 cores,    1 groups
 distr:  one band on    1 cores,    4 groups
 using from now: INCAR     
 vasp.5.4.1 24Jun15 (build Jul 19 2016 16:50:41) complex                        
  
 POSCAR found type information on POSCAR  Fe
 POSCAR found :  1 types and       1 ions
 LDA part: xc-table for Ceperly-Alder, standard interpolation
 POSCAR, INCAR and KPOINTS ok, starting setup
 WARNING: small aliasing (wrap around) errors must be expected
 FFT: planning ...
 WAVECAR not read
 entering main loop
       N       E                     dE             d eps       ncg     rms          rms(c)
DAV:   1     0.143975877836E+02    0.14398E+02   -0.34790E+03  1428   0.771E+02
  WARNING: DENTET: can't reach specified precision
  Number of Electrons is NELECT =   8.00030848243586     
DAV:   2    -0.921978641533E+01   -0.23617E+02   -0.21746E+02  1296   0.116E+02
DAV:   3    -0.971211743211E+01   -0.49233E+00   -0.48740E+00  1472   0.195E+01
DAV:   4    -0.971369802582E+01   -0.15806E-02   -0.15799E-02  1368   0.986E-01
DAV:   5    -0.971370759114E+01   -0.95653E-05   -0.95514E-05  1476   0.777E-02    0.153E+01
DAV:   6    -0.926539897134E+01    0.44831E+00   -0.78882E+00  1400   0.403E+01    0.393E+00
DAV:   7    -0.924343748671E+01    0.21961E-01   -0.22618E-01  1460   0.682E+00    0.247E+00
DAV:   8    -0.922993513274E+01    0.13502E-01   -0.50119E-03  1576   0.456E-01    0.121E+00
DAV:   9    -0.922089938410E+01    0.90357E-02   -0.57459E-03  1644   0.454E-01    0.185E-01
DAV:  10    -0.922098323369E+01   -0.83850E-04   -0.94622E-05  1476   0.138E-01    0.910E-02
DAV:  11    -0.922124625067E+01   -0.26302E-03   -0.10110E-04  1644   0.119E-01    0.334E-02
DAV:  12    -0.922130267661E+01   -0.56426E-04   -0.45951E-06  1192   0.167E-02    0.334E-02
DAV:  13    -0.922127223260E+01    0.30444E-04   -0.13619E-06   708   0.129E-02    0.130E-02
DAV:  14    -0.922125020974E+01    0.22023E-04   -0.60530E-07   684   0.580E-03    0.144E-03
DAV:  15    -0.922124611802E+01    0.40917E-05   -0.40450E-08   656   0.185E-03    0.338E-04
DAV:  16    -0.922124620424E+01   -0.86218E-07   -0.66299E-09   652   0.601E-04
   1 F= -.92212462E+01 E0= -.92212462E+01  d E =0.000000E+00  mag=     1.9101
 writing wavefunctions
