PROCAR lm decomposed
# of k-points:   26         # of bands:  12         # of ions:   1

 k-point    1 :    0.06250000 0.06250000 0.06250000     weight = 0.01562500

band   1 # energy   -1.15743979 # occ.  1.00000000
 
ion      s     py     pz     px    dxy    dyz    dz2    dxz    dx2    tot
  1  0.760  0.026  0.026  0.026  0.003  0.003  0.000  0.003  0.000  0.847
 
band   2 # energy    4.26923511 # occ.  1.00000000
 
ion      s     py     pz     px    dxy    dyz    dz2    dxz    dx2    tot
  1  0.000  0.000  0.002  0.002  0.423  0.442  0.016  0.095  0.008  0.987
 
band   3 # energy    4.26923511 # occ.  1.00000000
 
ion      s     py     pz     px    dxy    dyz    dz2    dxz    dx2    tot
  1  0.000  0.002  0.001  0.001  0.217  0.198  0.008  0.545  0.016  0.987
 
band   4 # energy    5.25908519 # occ.  1.00000000
 
ion      s     py     pz     px    dxy    dyz    dz2    dxz    dx2    tot
  1  0.002  0.005  0.005  0.005  0.324  0.324  0.000  0.324  0.000  0.988
 
band   5 # energy    6.07059048 # occ.  1.00000000
 
ion      s     py     pz     px    dxy    dyz    dz2    dxz    dx2    tot
  1  0.000  0.000  0.000  0.000  0.017  0.003  0.896  0.007  0.048  0.970
 
band   6 # energy    6.07059048 # occ.  1.00272542
 
ion      s     py     pz     px    dxy    dyz    dz2    dxz    dx2    tot
  1  0.000  0.000  0.000  0.000  0.001  0.015  0.048  0.011  0.896  0.970
 
band   7 # energy   29.70991439 # occ.  0.00000000
 
ion      s     py     pz     px    dxy    dyz    dz2    dxz    dx2    tot
  1  0.000  0.052  0.025  0.017  0.082  0.055  0.094  0.170  0.141  0.635
 
band   8 # energy   29.70991439 # occ.  0.00000000
 
ion      s     py     pz     px    dxy    dyz    dz2    dxz    dx2    tot
  1  0.000  0.011  0.038  0.046  0.122  0.149  0.141  0.034  0.094  0.635
 
band   9 # energy   34.06036486 # occ.  0.00000000
 
ion      s     py     pz     px    dxy    dyz    dz2    dxz    dx2    tot
  1  0.000  0.000  0.000  0.000  0.000  0.000  0.000  0.000  0.000  0.000
 
band  10 # energy   34.92781659 # occ.  0.00000000
 
ion      s     py     pz     px    dxy    dyz    dz2    dxz    dx2    tot
  1  0.075  0.165  0.165  0.165  0.204  0.204  0.000  0.204  0.000  1.180
 
band  11 # energy   40.20624147 # occ.  0.00000000
 
ion      s     py     pz     px    dxy    dyz    dz2    dxz    dx2    tot
  1  0.000  0.123  0.065  0.039  0.054  0.032  0.055  0.101  0.072  0.541
 
band  12 # energy   40.20624147 # occ.  0.00000000
 
ion      s     py     pz     px    dxy    dyz    dz2    dxz    dx2    tot
  1  0.000  0.029  0.086  0.112  0.071  0.093  0.072  0.024  0.055  0.541
 

 k-point    2 :    0.18750000 0.06250000 0.06250000     weight = 0.04687500

band   1 # energy    0.55615724 # occ.  1.00000000
 
ion      s     py     pz     px    dxy    dyz    dz2    dxz    dx2    tot
  1  0.576  0.077  0.077  0.023  0.007  0.077  0.004  0.007  0.012  0.860
 
band   2 # energy    3.75983728 # occ.  1.00000000
 
ion      s     py     pz     px    dxy    dyz    dz2    dxz    dx2    tot
  1  0.000  0.003  0.003  0.000  0.475  0.000  0.018  0.475  0.006  0.982
 
band   3 # energy    4.01821464 # occ.  1.00000000
 
ion      s     py     pz     px    dxy    dyz    dz2    dxz    dx2    tot
  1  0.016  0.026  0.026  0.003  0.093  0.556  0.037  0.093  0.110  0.959
 
band   4 # energy    5.98387091 # occ.  1.00000000
 
ion      s     py     pz     px    dxy    dyz    dz2    dxz    dx2    tot
  1  0.002  0.000  0.000  0.000  0.016  0.148  0.198  0.016  0.595  0.975
 
band   5 # energy    6.23065420 # occ.  1.00210305
 
ion      s     py     pz     px    dxy    dyz    dz2    dxz    dx2    tot
  1  0.000  0.000  0.000  0.000  0.014  0.000  0.712  0.014  0.237  0.977
 
band   6 # energy    6.50104296 # occ.  0.84242856
 
ion      s     py     pz     px    dxy    dyz    dz2    dxz    dx2    tot
  1  0.015  0.015  0.015  0.014  0.370  0.178  0.000  0.370  0.000  0.978
 
band   7 # energy   24.32714475 # occ.  0.00000000
 
ion      s     py     pz     px    dxy    dyz    dz2    dxz    dx2    tot
  1  0.053  0.110  0.110  0.029  0.011  0.370  0.048  0.011  0.145  0.888
 
band   8 # energy   27.33758069 # occ.  0.00000000
 
ion      s     py     pz     px    dxy    dyz    dz2    dxz    dx2    tot
  1  0.000  0.100  0.100  0.000  0.179  0.000  0.103  0.179  0.034  0.695
 
band   9 # energy   30.65102127 # occ.  0.00000000
 
ion      s     py     pz     px    dxy    dyz    dz2    dxz    dx2    tot
  1  0.132  0.065  0.065  0.382  0.140  0.008  0.011  0.140  0.033  0.976
 
band  10 # energy   34.68152623 # occ.  0.00000000
 
ion      s     py     pz     px    dxy    dyz    dz2    dxz    dx2    tot
  1  0.000  0.001  0.001  0.000  0.201  0.000  0.019  0.201  0.006  0.430
 
band  11 # energy   39.93849471 # occ.  0.00000000
 
ion      s     py     pz     px    dxy    dyz    dz2    dxz    dx2    tot
  1  0.033  0.053  0.053  0.145  0.090  0.160  0.128  0.090  0.385  1.137
 
band  12 # energy   40.80412300 # occ.  0.00000000
 
ion      s     py     pz     px    dxy    dyz    dz2    dxz    dx2    tot
  1  0.000  0.093  0.093  0.000  0.194  0.000  0.001  0.194  0.000  0.576
 

 k-point    3 :    0.31250000 0.06250000 0.06250000     weight = 0.04687500

band   1 # energy    1.66960315 # occ.  1.00000000
 
ion      s     py     pz     px    dxy    dyz    dz2    dxz    dx2    tot
  1  0.237  0.027  0.027  0.021  0.001  0.422  0.044  0.001  0.133  0.913
 
band   2 # energy    3.32724207 # occ.  1.00000000
 
ion      s     py     pz     px    dxy    dyz    dz2    dxz    dx2    tot
  1  0.000  0.005  0.005  0.000  0.482  0.000  0.006  0.482  0.002  0.981
 
band   3 # energy    4.91066596 # occ.  1.00000000
 
ion      s     py     pz     px    dxy    dyz    dz2    dxz    dx2    tot
  1  0.092  0.158  0.158  0.000  0.148  0.096  0.027  0.148  0.080  0.905
 
band   4 # energy    6.15497924 # occ.  1.00000000
 
ion      s     py     pz     px    dxy    dyz    dz2    dxz    dx2    tot
  1  0.004  0.002  0.002  0.001  0.014  0.285  0.166  0.014  0.498  0.984
 
band   5 # energy    6.36090545 # occ.  1.03106975
 
ion      s     py     pz     px    dxy    dyz    dz2    dxz    dx2    tot
  1  0.000  0.000  0.000  0.000  0.005  0.000  0.731  0.005  0.244  0.984
 
band   6 # energy    8.15161432 # occ. -0.01736045
 
ion      s     py     pz     px    dxy    dyz    dz2    dxz    dx2    tot
  1  0.044  0.067  0.067  0.012  0.332  0.102  0.001  0.332  0.002  0.960
 
band   7 # energy   18.74443611 # occ.  0.00000000
 
ion      s     py     pz     px    dxy    dyz    dz2    dxz    dx2    tot
  1  0.225  0.106  0.106  0.016  0.005  0.370  0.030  0.005  0.089  0.952
 
band   8 # energy   25.49580041 # occ.  0.00000000
 
ion      s     py     pz     px    dxy    dyz    dz2    dxz    dx2    tot
  1  0.000  0.132  0.132  0.000  0.160  0.000  0.029  0.160  0.010  0.624
 
band   9 # energy   28.01621339 # occ.  0.00000000
 
ion      s     py     pz     px    dxy    dyz    dz2    dxz    dx2    tot
  1  0.132  0.011  0.011  0.548  0.048  0.011  0.015  0.048  0.045  0.870
 
band  10 # energy   34.40503776 # occ.  0.00000000
 
ion      s     py     pz     px    dxy    dyz    dz2    dxz    dx2    tot
  1  0.000  0.003  0.003  0.000  0.460  0.000  0.007  0.460  0.002  0.936
 
band  11 # energy   39.23861149 # occ.  0.00000000
 
ion      s     py     pz     px    dxy    dyz    dz2    dxz    dx2    tot
  1  0.104  0.024  0.024  0.122  0.023  0.007  0.192  0.023  0.576  1.095
 
band  12 # energy   44.23285225 # occ.  0.00000000
 
ion      s     py     pz     px    dxy    dyz    dz2    dxz    dx2    tot
  1  0.058  0.009  0.011  0.011  0.005  0.319  0.001  0.006  0.005  0.424
 

 k-point    4 :    0.43750000 0.06250000 0.06250000     weight = 0.02343750

band   1 # energy    1.68115107 # occ.  1.00000000
 
ion      s     py     pz     px    dxy    dyz    dz2    dxz    dx2    tot
  1  0.140  0.000  0.000  0.020  0.000  0.512  0.065  0.000  0.194  0.930
 
band   2 # energy    3.16194426 # occ.  1.00000000
 
ion      s     py     pz     px    dxy    dyz    dz2    dxz    dx2    tot
  1  0.000  0.005  0.005  0.000  0.486  0.000  0.000  0.486  0.000  0.981
 
band   3 # energy    6.05818177 # occ.  1.00000000
 
ion      s     py     pz     px    dxy    dyz    dz2    dxz    dx2    tot
  1  0.000  0.197  0.197  0.000  0.259  0.000  0.000  0.259  0.000  0.912
 
band   4 # energy    6.23970626 # occ.  1.00000000
 
ion      s     py     pz     px    dxy    dyz    dz2    dxz    dx2    tot
  1  0.013  0.000  0.000  0.001  0.000  0.292  0.170  0.000  0.510  0.986
 
band   5 # energy    6.41536643 # occ.  1.05236497
 
ion      s     py     pz     px    dxy    dyz    dz2    dxz    dx2    tot
  1  0.000  0.000  0.000  0.000  0.000  0.000  0.741  0.000  0.247  0.987
 
band   6 # energy    9.52341868 # occ. -0.00399013
 
ion      s     py     pz     px    dxy    dyz    dz2    dxz    dx2    tot
  1  0.000  0.207  0.207  0.000  0.249  0.000  0.000  0.249  0.000  0.912
 
band   7 # energy   15.62511783 # occ.  0.00000000
 
ion      s     py     pz     px    dxy    dyz    dz2    dxz    dx2    tot
  1  0.425  0.000  0.000  0.020  0.000  0.436  0.027  0.000  0.080  0.987
 
band   8 # energy   24.80234074 # occ.  0.00000000
 
ion      s     py     pz     px    dxy    dyz    dz2    dxz    dx2    tot
  1  0.000  0.142  0.142  0.000  0.152  0.000  0.000  0.152  0.000  0.588
 
band   9 # energy   27.02610726 # occ.  0.00000000
 
ion      s     py     pz     px    dxy    dyz    dz2    dxz    dx2    tot
  1  0.129  0.000  0.000  0.613  0.000  0.023  0.014  0.000  0.042  0.822
 
band  10 # energy   34.24293426 # occ.  0.00000000
 
ion      s     py     pz     px    dxy    dyz    dz2    dxz    dx2    tot
  1  0.000  0.004  0.004  0.000  0.541  0.000  0.000  0.541  0.000  1.090
 
band  11 # energy   39.19190189 # occ.  0.00000000
 
ion      s     py     pz     px    dxy    dyz    dz2    dxz    dx2    tot
  1  0.151  0.000  0.000  0.115  0.000  0.005  0.223  0.000  0.668  1.161
 
band  12 # energy   43.89328652 # occ.  0.00000000
 
ion      s     py     pz     px    dxy    dyz    dz2    dxz    dx2    tot
  1  0.000  0.037  0.037  0.000  0.009  0.000  0.000  0.009  0.000  0.092
 

 k-point    5 :   -0.06250000 0.06250000 0.06250000     weight = 0.01171875

band   1 # energy   -1.83409027 # occ.  1.00000000
 
ion      s     py     pz     px    dxy    dyz    dz2    dxz    dx2    tot
  1  0.817  0.000  0.000  0.028  0.000  0.000  0.000  0.000  0.001  0.846
 
band   2 # energy    4.52389648 # occ.  1.00000000
 
ion      s     py     pz     px    dxy    dyz    dz2    dxz    dx2    tot
  1  0.000  0.002  0.002  0.000  0.495  0.000  0.000  0.495  0.000  0.993
 
band   3 # energy    4.52389656 # occ.  1.00000000
 
ion      s     py     pz     px    dxy    dyz    dz2    dxz    dx2    tot
  1  0.000  0.002  0.002  0.000  0.495  0.000  0.000  0.495  0.000  0.993
 
band   4 # energy    4.63355368 # occ.  1.00000000
 
ion      s     py     pz     px    dxy    dyz    dz2    dxz    dx2    tot
  1  0.000  0.000  0.000  0.000  0.000  0.993  0.000  0.000  0.000  0.993
 
band   5 # energy    5.97447873 # occ.  1.00000000
 
ion      s     py     pz     px    dxy    dyz    dz2    dxz    dx2    tot
  1  0.000  0.000  0.000  0.000  0.000  0.000  0.724  0.000  0.241  0.965
 
band   6 # energy    6.23108402 # occ.  1.00000000
 
ion      s     py     pz     px    dxy    dyz    dz2    dxz    dx2    tot
  1  0.000  0.000  0.000  0.000  0.000  0.000  0.243  0.000  0.730  0.974
 
band   7 # energy   31.43567760 # occ.  0.00000000
 
ion      s     py     pz     px    dxy    dyz    dz2    dxz    dx2    tot
  1  0.000  0.000  0.000  0.000  0.000  0.000  0.225  0.000  0.075  0.300
 
band   8 # energy   32.89575330 # occ.  0.00000000
 
ion      s     py     pz     px    dxy    dyz    dz2    dxz    dx2    tot
  1  0.000  0.007  0.007  0.000  0.125  0.000  0.000  0.125  0.000  0.265
 
band   9 # energy   32.89575330 # occ.  0.00000000
 
ion      s     py     pz     px    dxy    dyz    dz2    dxz    dx2    tot
  1  0.000  0.007  0.007  0.000  0.125  0.000  0.000  0.125  0.000  0.265
 
band  10 # energy   36.94342952 # occ.  0.00000000
 
ion      s     py     pz     px    dxy    dyz    dz2    dxz    dx2    tot
  1  0.015  0.000  0.000  0.246  0.000  0.000  0.108  0.000  0.323  0.692
 
band  11 # energy   39.69666685 # occ.  0.00000000
 
ion      s     py     pz     px    dxy    dyz    dz2    dxz    dx2    tot
  1  0.000  0.132  0.285  0.000  0.255  0.000  0.000  0.552  0.000  1.224
 
band  12 # energy   39.69666686 # occ.  0.00000000
 
ion      s     py     pz     px    dxy    dyz    dz2    dxz    dx2    tot
  1  0.000  0.285  0.132  0.000  0.552  0.000  0.000  0.255  0.000  1.224
 

 k-point    6 :    0.18750000 0.18750000 0.06250000     weight = 0.04687500

band   1 # energy    2.11653809 # occ.  1.00000000
 
ion      s     py     pz     px    dxy    dyz    dz2    dxz    dx2    tot
  1  0.319  0.054  0.082  0.054  0.001  0.168  0.047  0.168  0.000  0.894
 
band   2 # energy    3.41412784 # occ.  1.00000000
 
ion      s     py     pz     px    dxy    dyz    dz2    dxz    dx2    tot
  1  0.000  0.027  0.000  0.027  0.000  0.355  0.000  0.355  0.192  0.956
 
band   3 # energy    3.66086757 # occ.  1.00000000
 
ion      s     py     pz     px    dxy    dyz    dz2    dxz    dx2    tot
  1  0.039  0.005  0.086  0.005  0.668  0.074  0.006  0.074  0.000  0.958
 
band   4 # energy    6.08483266 # occ.  1.00000000
 
ion      s     py     pz     px    dxy    dyz    dz2    dxz    dx2    tot
  1  0.000  0.001  0.000  0.001  0.000  0.108  0.000  0.108  0.761  0.979
 
band   5 # energy    6.39632604 # occ.  1.00173390
 
ion      s     py     pz     px    dxy    dyz    dz2    dxz    dx2    tot
  1  0.005  0.000  0.001  0.000  0.000  0.034  0.911  0.034  0.000  0.985
 
band   6 # energy    8.40782704 # occ. -0.03536732
 
ion      s     py     pz     px    dxy    dyz    dz2    dxz    dx2    tot
  1  0.065  0.036  0.067  0.036  0.311  0.215  0.019  0.215  0.000  0.963
 
band   7 # energy   21.64553011 # occ.  0.00000000
 
ion      s     py     pz     px    dxy    dyz    dz2    dxz    dx2    tot
  1  0.000  0.169  0.000  0.169  0.000  0.205  0.000  0.205  0.167  0.914
 
band   8 # energy   22.66619130 # occ.  0.00000000
 
ion      s     py     pz     px    dxy    dyz    dz2    dxz    dx2    tot
  1  0.188  0.008  0.265  0.008  0.105  0.124  0.027  0.124  0.000  0.849
 
band   9 # energy   26.94850405 # occ.  0.00000000
 
ion      s     py     pz     px    dxy    dyz    dz2    dxz    dx2    tot
  1  0.172  0.216  0.002  0.216  0.193  0.002  0.034  0.002  0.000  0.838
 
band  10 # energy   36.77299687 # occ.  0.00000000
 
ion      s     py     pz     px    dxy    dyz    dz2    dxz    dx2    tot
  1  0.000  0.011  0.000  0.011  0.000  0.111  0.000  0.111  0.140  0.384
 
band  11 # energy   41.13859380 # occ.  0.00000000
 
ion      s     py     pz     px    dxy    dyz    dz2    dxz    dx2    tot
  1  0.019  0.019  0.023  0.019  0.490  0.194  0.014  0.194  0.000  0.972
 
band  12 # energy   43.73982422 # occ.  0.00000000
 
ion      s     py     pz     px    dxy    dyz    dz2    dxz    dx2    tot
  1  0.000  0.084  0.000  0.084  0.000  0.071  0.000  0.071  0.480  0.789
 

 k-point    7 :    0.31250000 0.18750000 0.06250000     weight = 0.09375000

band   1 # energy    2.42124365 # occ.  1.00000000
 
ion      s     py     pz     px    dxy    dyz    dz2    dxz    dx2    tot
  1  0.099  0.002  0.007  0.058  0.035  0.543  0.055  0.042  0.098  0.939
 
band   2 # energy    3.20919822 # occ.  1.00000000
 
ion      s     py     pz     px    dxy    dyz    dz2    dxz    dx2    tot
  1  0.000  0.029  0.013  0.015  0.331  0.025  0.001  0.483  0.069  0.966
 
band   3 # energy    4.41463911 # occ.  1.00000000
 
ion      s     py     pz     px    dxy    dyz    dz2    dxz    dx2    tot
  1  0.024  0.110  0.154  0.001  0.362  0.010  0.069  0.142  0.054  0.925
 
band   4 # energy    6.26010586 # occ.  1.00000000
 
ion      s     py     pz     px    dxy    dyz    dz2    dxz    dx2    tot
  1  0.003  0.001  0.000  0.002  0.000  0.209  0.049  0.046  0.675  0.984
 
band   5 # energy    6.50686439 # occ.  1.01103521
 
ion      s     py     pz     px    dxy    dyz    dz2    dxz    dx2    tot
  1  0.004  0.004  0.006  0.000  0.047  0.014  0.785  0.072  0.054  0.988
 
band   6 # energy   11.04617352 # occ. -0.00236763
 
ion      s     py     pz     px    dxy    dyz    dz2    dxz    dx2    tot
  1  0.064  0.131  0.194  0.021  0.217  0.078  0.034  0.191  0.000  0.929
 
band   7 # energy   16.94361486 # occ.  0.00000000
 
ion      s     py     pz     px    dxy    dyz    dz2    dxz    dx2    tot
  1  0.241  0.120  0.025  0.085  0.013  0.349  0.006  0.022  0.079  0.941
 
band   8 # energy   20.93595913 # occ.  0.00000000
 
ion      s     py     pz     px    dxy    dyz    dz2    dxz    dx2    tot
  1  0.180  0.056  0.116  0.138  0.118  0.000  0.000  0.207  0.032  0.848
 
band   9 # energy   25.48213933 # occ.  0.00000000
 
ion      s     py     pz     px    dxy    dyz    dz2    dxz    dx2    tot
  1  0.158  0.111  0.048  0.270  0.122  0.044  0.011  0.041  0.005  0.809
 
band  10 # energy   37.31912257 # occ.  0.00000000
 
ion      s     py     pz     px    dxy    dyz    dz2    dxz    dx2    tot
  1  0.007  0.002  0.001  0.022  0.171  0.011  0.013  0.268  0.157  0.652
 
band  11 # energy   42.01322394 # occ.  0.00000000
 
ion      s     py     pz     px    dxy    dyz    dz2    dxz    dx2    tot
  1  0.004  0.055  0.002  0.000  0.189  0.071  0.118  0.008  0.111  0.559
 
band  12 # energy   44.56409056 # occ.  0.00000000
 
ion      s     py     pz     px    dxy    dyz    dz2    dxz    dx2    tot
  1  0.053  0.009  0.005  0.126  0.081  0.004  0.282  0.036  0.399  0.995
 

 k-point    8 :   -0.18750000 0.18750000 0.06250000     weight = 0.04687500

band   1 # energy   -0.53307917 # occ.  1.00000000
 
ion      s     py     pz     px    dxy    dyz    dz2    dxz    dx2    tot
  1  0.698  0.023  0.000  0.100  0.016  0.000  0.007  0.000  0.005  0.850
 
band   2 # energy    4.18864662 # occ.  1.00000000
 
ion      s     py     pz     px    dxy    dyz    dz2    dxz    dx2    tot
  1  0.000  0.000  0.003  0.000  0.000  0.382  0.000  0.602  0.000  0.988
 
band   3 # energy    4.42686153 # occ.  1.00000000
 
ion      s     py     pz     px    dxy    dyz    dz2    dxz    dx2    tot
  1  0.006  0.017  0.000  0.010  0.828  0.000  0.102  0.000  0.011  0.973
 
band   4 # energy    5.38772015 # occ.  1.00000000
 
ion      s     py     pz     px    dxy    dyz    dz2    dxz    dx2    tot
  1  0.000  0.000  0.009  0.000  0.000  0.604  0.000  0.373  0.000  0.986
 
band   5 # energy    5.65949781 # occ.  1.00000000
 
ion      s     py     pz     px    dxy    dyz    dz2    dxz    dx2    tot
  1  0.000  0.000  0.000  0.000  0.121  0.000  0.660  0.000  0.180  0.962
 
band   6 # energy    6.35769397 # occ.  1.00505428
 
ion      s     py     pz     px    dxy    dyz    dz2    dxz    dx2    tot
  1  0.006  0.000  0.000  0.001  0.005  0.000  0.188  0.000  0.778  0.978
 
band   7 # energy   27.21933612 # occ.  0.00000000
 
ion      s     py     pz     px    dxy    dyz    dz2    dxz    dx2    tot
  1  0.022  0.110  0.000  0.046  0.318  0.000  0.282  0.000  0.024  0.802
 
band   8 # energy   30.57423463 # occ.  0.00000000
 
ion      s     py     pz     px    dxy    dyz    dz2    dxz    dx2    tot
  1  0.022  0.000  0.000  0.128  0.085  0.000  0.039  0.000  0.177  0.451
 
band   9 # energy   31.80568414 # occ.  0.00000000
 
ion      s     py     pz     px    dxy    dyz    dz2    dxz    dx2    tot
  1  0.000  0.000  0.149  0.000  0.000  0.046  0.000  0.699  0.000  0.894
 
band  10 # energy   36.29849987 # occ.  0.00000000
 
ion      s     py     pz     px    dxy    dyz    dz2    dxz    dx2    tot
  1  0.004  0.202  0.000  0.092  0.291  0.000  0.107  0.000  0.006  0.701
 
band  11 # energy   36.67103346 # occ.  0.00000000
 
ion      s     py     pz     px    dxy    dyz    dz2    dxz    dx2    tot
  1  0.000  0.000  0.392  0.000  0.000  0.558  0.000  0.047  0.000  0.997
 
band  12 # energy   38.26072367 # occ.  0.00000000
 
ion      s     py     pz     px    dxy    dyz    dz2    dxz    dx2    tot
  1  0.094  0.175  0.000  0.111  0.031  0.000  0.145  0.000  0.004  0.560
 

 k-point    9 :    0.31250000 0.31250000 0.06250000     weight = 0.01562500

band   1 # energy    2.77996694 # occ.  1.00000000
 
ion      s     py     pz     px    dxy    dyz    dz2    dxz    dx2    tot
  1  0.046  0.009  0.009  0.009  0.297  0.297  0.000  0.297  0.000  0.966
 
band   2 # energy    3.65075622 # occ.  1.00000000
 
ion      s     py     pz     px    dxy    dyz    dz2    dxz    dx2    tot
  1  0.000  0.031  0.123  0.031  0.365  0.091  0.204  0.091  0.000  0.937
 
band   3 # energy    3.65075627 # occ.  1.00000000
 
ion      s     py     pz     px    dxy    dyz    dz2    dxz    dx2    tot
  1  0.000  0.092  0.000  0.092  0.000  0.274  0.000  0.274  0.204  0.937
 
band   4 # energy    6.43380901 # occ.  1.00000000
 
ion      s     py     pz     px    dxy    dyz    dz2    dxz    dx2    tot
  1  0.000  0.001  0.006  0.001  0.155  0.039  0.746  0.039  0.000  0.987
 
band   5 # energy    6.43380905 # occ.  1.00866154
 
ion      s     py     pz     px    dxy    dyz    dz2    dxz    dx2    tot
  1  0.000  0.004  0.000  0.004  0.000  0.116  0.000  0.116  0.746  0.987
 
band   6 # energy   14.79725761 # occ.  0.00000000
 
ion      s     py     pz     px    dxy    dyz    dz2    dxz    dx2    tot
  1  0.000  0.078  0.312  0.078  0.255  0.064  0.072  0.064  0.000  0.922
 
band   7 # energy   14.79725762 # occ.  0.00000000
 
ion      s     py     pz     px    dxy    dyz    dz2    dxz    dx2    tot
  1  0.000  0.234  0.000  0.234  0.000  0.191  0.000  0.191  0.072  0.922
 
band   8 # energy   17.79875629 # occ.  0.00000000
 
ion      s     py     pz     px    dxy    dyz    dz2    dxz    dx2    tot
  1  0.584  0.003  0.003  0.003  0.098  0.098  0.000  0.098  0.000  0.887
 
band   9 # energy   24.97266766 # occ.  0.00000000
 
ion      s     py     pz     px    dxy    dyz    dz2    dxz    dx2    tot
  1  0.153  0.134  0.134  0.134  0.094  0.094  0.000  0.094  0.000  0.837
 
band  10 # energy   39.89924431 # occ.  0.00000000
 
ion      s     py     pz     px    dxy    dyz    dz2    dxz    dx2    tot
  1  0.000  0.024  0.000  0.024  0.000  0.062  0.000  0.064  0.320  0.495
 
band  11 # energy   39.89924431 # occ.  0.00000000
 
ion      s     py     pz     px    dxy    dyz    dz2    dxz    dx2    tot
  1  0.000  0.008  0.032  0.008  0.084  0.022  0.320  0.020  0.000  0.495
 
band  12 # energy   48.16683264 # occ.  0.00000000
 
ion      s     py     pz     px    dxy    dyz    dz2    dxz    dx2    tot
  1  0.017  0.049  0.049  0.049  0.430  0.430  0.000  0.430  0.000  1.454
 

 k-point   10 :   -0.31250000 0.31250000 0.06250000     weight = 0.04687500

band   1 # energy    1.16269946 # occ.  1.00000000
 
ion      s     py     pz     px    dxy    dyz    dz2    dxz    dx2    tot
  1  0.410  0.032  0.000  0.109  0.220  0.000  0.102  0.000  0.010  0.882
 
band   2 # energy    3.69538976 # occ.  1.00000000
 
ion      s     py     pz     px    dxy    dyz    dz2    dxz    dx2    tot
  1  0.000  0.000  0.003  0.000  0.000  0.444  0.000  0.536  0.000  0.984
 
band   3 # energy    4.48862067 # occ.  1.00000000
 
ion      s     py     pz     px    dxy    dyz    dz2    dxz    dx2    tot
  1  0.071  0.087  0.000  0.096  0.279  0.000  0.252  0.000  0.131  0.916
 
band   4 # energy    5.89068573 # occ.  1.00000000
 
ion      s     py     pz     px    dxy    dyz    dz2    dxz    dx2    tot
  1  0.001  0.012  0.000  0.013  0.431  0.000  0.487  0.000  0.033  0.976
 
band   5 # energy    6.56833725 # occ.  1.00910643
 
ion      s     py     pz     px    dxy    dyz    dz2    dxz    dx2    tot
  1  0.034  0.009  0.000  0.020  0.002  0.000  0.106  0.000  0.807  0.977
 
band   6 # energy    6.63359774 # occ.  0.63907904
 
ion      s     py     pz     px    dxy    dyz    dz2    dxz    dx2    tot
  1  0.000  0.000  0.012  0.000  0.000  0.538  0.000  0.433  0.000  0.984
 
band   7 # energy   21.39592824 # occ.  0.00000000
 
ion      s     py     pz     px    dxy    dyz    dz2    dxz    dx2    tot
  1  0.139  0.172  0.000  0.090  0.372  0.000  0.162  0.000  0.009  0.944
 
band   8 # energy   27.98049964 # occ.  0.00000000
 
ion      s     py     pz     px    dxy    dyz    dz2    dxz    dx2    tot
  1  0.025  0.054  0.000  0.140  0.007  0.000  0.078  0.000  0.089  0.393
 
band   9 # energy   29.88168163 # occ.  0.00000000
 
ion      s     py     pz     px    dxy    dyz    dz2    dxz    dx2    tot
  1  0.000  0.000  0.441  0.000  0.000  0.028  0.000  0.593  0.000  1.062
 
band  10 # energy   34.49797994 # occ.  0.00000000
 
ion      s     py     pz     px    dxy    dyz    dz2    dxz    dx2    tot
  1  0.000  0.000  0.230  0.000  0.000  0.724  0.000  0.150  0.000  1.104
 
band  11 # energy   36.68740844 # occ.  0.00000000
 
ion      s     py     pz     px    dxy    dyz    dz2    dxz    dx2    tot
  1  0.073  0.238  0.000  0.000  0.054  0.000  0.540  0.000  0.009  0.915
 
band  12 # energy   39.55949483 # occ.  0.00000000
 
ion      s     py     pz     px    dxy    dyz    dz2    dxz    dx2    tot
  1  0.128  0.008  0.000  0.067  0.187  0.000  0.074  0.000  0.119  0.583
 

 k-point   11 :   -0.18750000 0.31250000 0.06250000     weight = 0.04687500

band   1 # energy    1.01338082 # occ.  1.00000000
 
ion      s     py     pz     px    dxy    dyz    dz2    dxz    dx2    tot
  1  0.502  0.016  0.016  0.170  0.044  0.000  0.018  0.044  0.053  0.863
 
band   2 # energy    3.92485425 # occ.  1.00000000
 
ion      s     py     pz     px    dxy    dyz    dz2    dxz    dx2    tot
  1  0.000  0.015  0.015  0.000  0.292  0.000  0.254  0.292  0.085  0.951
 
band   3 # energy    4.16779938 # occ.  1.00000000
 
ion      s     py     pz     px    dxy    dyz    dz2    dxz    dx2    tot
  1  0.012  0.006  0.006  0.028  0.223  0.476  0.000  0.223  0.000  0.975
 
band   4 # energy    5.48381130 # occ.  1.00000000
 
ion      s     py     pz     px    dxy    dyz    dz2    dxz    dx2    tot
  1  0.000  0.002  0.002  0.000  0.182  0.000  0.448  0.182  0.149  0.966
 
band   5 # energy    6.32116110 # occ.  1.00483113
 
ion      s     py     pz     px    dxy    dyz    dz2    dxz    dx2    tot
  1  0.000  0.006  0.006  0.003  0.181  0.396  0.052  0.181  0.157  0.983
 
band   6 # energy    6.78289132 # occ.  0.66545210
 
ion      s     py     pz     px    dxy    dyz    dz2    dxz    dx2    tot
  1  0.052  0.007  0.007  0.027  0.031  0.111  0.178  0.031  0.533  0.977
 
band   7 # energy   24.34528097 # occ.  0.00000000
 
ion      s     py     pz     px    dxy    dyz    dz2    dxz    dx2    tot
  1  0.000  0.123  0.123  0.000  0.161  0.000  0.258  0.161  0.086  0.912
 
band   8 # energy   25.59470853 # occ.  0.00000000
 
ion      s     py     pz     px    dxy    dyz    dz2    dxz    dx2    tot
  1  0.138  0.058  0.058  0.180  0.186  0.025  0.002  0.186  0.007  0.842
 
band   9 # energy   32.10518506 # occ.  0.00000000
 
ion      s     py     pz     px    dxy    dyz    dz2    dxz    dx2    tot
  1  0.000  0.056  0.056  0.000  0.186  0.000  0.205  0.186  0.068  0.758
 
band  10 # energy   32.83767755 # occ.  0.00000000
 
ion      s     py     pz     px    dxy    dyz    dz2    dxz    dx2    tot
  1  0.002  0.232  0.232  0.048  0.035  0.101  0.004  0.035  0.012  0.702
 
band  11 # energy   36.73345222 # occ.  0.00000000
 
ion      s     py     pz     px    dxy    dyz    dz2    dxz    dx2    tot
  1  0.101  0.004  0.004  0.058  0.135  0.438  0.015  0.135  0.046  0.934
 
band  12 # energy   41.62661059 # occ.  0.00000000
 
ion      s     py     pz     px    dxy    dyz    dz2    dxz    dx2    tot
  1  0.000  0.154  0.154  0.000  0.000  0.000  0.139  0.000  0.046  0.493
 

 k-point   12 :   -0.43750000 0.43750000 0.06250000     weight = 0.04687500

band   1 # energy    1.54884174 # occ.  1.00000000
 
ion      s     py     pz     px    dxy    dyz    dz2    dxz    dx2    tot
  1  0.168  0.000  0.000  0.019  0.451  0.000  0.283  0.000  0.001  0.923
 
band   2 # energy    3.36333962 # occ.  1.00000000
 
ion      s     py     pz     px    dxy    dyz    dz2    dxz    dx2    tot
  1  0.000  0.000  0.003  0.000  0.000  0.476  0.000  0.503  0.000  0.983
 
band   3 # energy    5.45399860 # occ.  1.00000000
 
ion      s     py     pz     px    dxy    dyz    dz2    dxz    dx2    tot
  1  0.023  0.103  0.000  0.112  0.000  0.000  0.090  0.000  0.595  0.923
 
band   4 # energy    6.11764450 # occ.  1.00000000
 
ion      s     py     pz     px    dxy    dyz    dz2    dxz    dx2    tot
  1  0.009  0.008  0.000  0.006  0.346  0.000  0.555  0.000  0.058  0.981
 
band   5 # energy    7.64528751 # occ.  0.18541149
 
ion      s     py     pz     px    dxy    dyz    dz2    dxz    dx2    tot
  1  0.000  0.000  0.003  0.000  0.000  0.512  0.000  0.478  0.000  0.992
 
band   6 # energy    7.84315319 # occ.  0.00234946
 
ion      s     py     pz     px    dxy    dyz    dz2    dxz    dx2    tot
  1  0.049  0.211  0.000  0.253  0.049  0.000  0.008  0.000  0.338  0.906
 
band   7 # energy   16.53437353 # occ.  0.00000000
 
ion      s     py     pz     px    dxy    dyz    dz2    dxz    dx2    tot
  1  0.356  0.083  0.000  0.021  0.400  0.000  0.119  0.000  0.003  0.982
 
band   8 # energy   26.46714304 # occ.  0.00000000
 
ion      s     py     pz     px    dxy    dyz    dz2    dxz    dx2    tot
  1  0.022  0.105  0.000  0.130  0.002  0.000  0.079  0.000  0.010  0.348
 
band   9 # energy   28.16087022 # occ.  0.00000000
 
ion      s     py     pz     px    dxy    dyz    dz2    dxz    dx2    tot
  1  0.000  0.000  0.629  0.000  0.000  0.063  0.000  0.240  0.000  0.932
 
band  10 # energy   33.74047008 # occ.  0.00000000
 
ion      s     py     pz     px    dxy    dyz    dz2    dxz    dx2    tot
  1  0.000  0.000  0.135  0.000  0.000  0.682  0.000  0.495  0.000  1.312
 
band  11 # energy   37.13277929 # occ.  0.00000000
 
ion      s     py     pz     px    dxy    dyz    dz2    dxz    dx2    tot