<?xml version="1.0" encoding="ISO-8859-1"?>
<modeling>
 <generator>
  <i name="program" type="string">vasp </i>
  <i name="version" type="string">5.4.1  </i>
  <i name="subversion" type="string">24Jun15 (build Jul 19 2016 16:50:41) complex                          parallel </i>
  <i name="platform" type="string">IFC91_ompi </i>
  <i name="date" type="string">2019 10 17 </i>
  <i name="time" type="string">12:36:10 </i>
 </generator>
 <incar>
  <i type="string" name="SYSTEM"> Fe BCC</i>
  <i type="string" name="PREC">accurate</i>
  <i type="int" name="ISPIN">     2</i>
  <i name="EDIFF">      0.00000100</i>
  <i name="ENMAX">    400.00000000</i>
  <v name="MAGMOM">      4.00000000</v>
  <i type="int" name="ISMEAR">    -5</i>
  <i type="logical" name="LORBIT"> F  </i>
  <v type="int" name="KPOINT_BSE">    -1     0     0     0</v>
 </incar>
 <kpoints>
  <generation param="Monkhorst-Pack">
   <v type="int" name="divisions">       8        8        8 </v>
   <v name="usershift">      0.00000000       0.00000000       0.00000000 </v>
   <v name="genvec1">      0.12500000       0.00000000       0.00000000 </v>
   <v name="genvec2">      0.00000000       0.12500000       0.00000000 </v>
   <v name="genvec3">      0.00000000       0.00000000       0.12500000 </v>
   <v name="shift">      0.50000000       0.50000000       0.50000000 </v>
  </generation>
  <varray name="kpointlist" >
   <v>       0.06250000       0.06250000       0.06250000 </v>
   <v>       0.18750000       0.06250000       0.06250000 </v>
   <v>       0.31250000       0.06250000       0.06250000 </v>
   <v>       0.43750000       0.06250000       0.06250000 </v>
   <v>      -0.06250000       0.06250000       0.06250000 </v>
   <v>       0.18750000       0.18750000       0.06250000 </v>
   <v>       0.31250000       0.18750000       0.06250000 </v>
   <v>      -0.18750000       0.18750000       0.06250000 </v>
   <v>       0.31250000       0.31250000       0.06250000 </v>
   <v>      -0.31250000       0.31250000       0.06250000 </v>
   <v>      -0.18750000       0.31250000       0.06250000 </v>
   <v>      -0.43750000       0.43750000       0.06250000 </v>
   <v>      -0.31250000       0.43750000       0.06250000 </v>
   <v>      -0.43750000      -0.43750000       0.06250000 </v>
   <v>      -0.31250000      -0.43750000       0.06250000 </v>
   <v>       0.18750000       0.18750000       0.18750000 </v>
   <v>       0.31250000       0.18750000       0.18750000 </v>
   <v>      -0.18750000       0.18750000       0.18750000 </v>
   <v>      -0.31250000       0.31250000       0.18750000 </v>
   <v>      -0.43750000       0.43750000       0.18750000 </v>
   <v>      -0.31250000       0.43750000       0.18750000 </v>
   <v>      -0.43750000      -0.43750000       0.18750000 </v>
   <v>      -0.31250000       0.31250000       0.31250000 </v>
   <v>      -0.43750000       0.43750000       0.31250000 </v>
   <v>      -0.43750000      -0.43750000       0.31250000 </v>
   <v>      -0.43750000       0.43750000       0.43750000 </v>
  </varray>
  <varray name="weights" >
   <v>       0.01562500 </v>
   <v>       0.04687500 </v>
   <v>       0.04687500 </v>
   <v>       0.02343750 </v>
   <v>       0.01171875 </v>
   <v>       0.04687500 </v>
   <v>       0.09375000 </v>
   <v>       0.04687500 </v>
   <v>       0.01562500 </v>
   <v>       0.04687500 </v>
   <v>       0.04687500 </v>
   <v>       0.04687500 </v>
   <v>       0.09375000 </v>
   <v>       0.04687500 </v>
   <v>       0.04687500 </v>
   <v>       0.01562500 </v>
   <v>       0.02343750 </v>
   <v>       0.01171875 </v>
   <v>       0.04687500 </v>
   <v>       0.04687500 </v>
   <v>       0.04687500 </v>
   <v>       0.04687500 </v>
   <v>       0.01171875 </v>
   <v>       0.04687500 </v>
   <v>       0.01562500 </v>
   <v>       0.01171875 </v>
  </varray>
  <varray name="tetrahedronlist"  type="int" >
   <v type="int" >        4        1        2        2        6 </v>
   <v type="int" >        8        2        2        6        6 </v>
   <v type="int" >        4        2        6        6       16 </v>
   <v type="int" >        4        2        3        6        7 </v>
   <v type="int" >        4        2        6        6        7 </v>
   <v type="int" >       12        6        6        7       16 </v>
   <v type="int" >        8        3        6        7        7 </v>
   <v type="int" >        8        6        7        7       17 </v>
   <v type="int" >        8        6        7       16       17 </v>
   <v type="int" >        4        3        4        7        7 </v>
   <v type="int" >        4        3        7        7        7 </v>
   <v type="int" >       16        7        7        7       17 </v>
   <v type="int" >        8        4        7        7        7 </v>
   <v type="int" >        4        7        7        7       16 </v>
   <v type="int" >       20        7        7       16       17 </v>
   <v type="int" >        4        3        4        6        7 </v>
   <v type="int" >        4        4        6        7        7 </v>
   <v type="int" >       16        6        7        7       16 </v>
   <v type="int" >        8        3        6        6        7 </v>
   <v type="int" >        4        6        6        6        7 </v>
   <v type="int" >        4        2        2        3        6 </v>
   <v type="int" >        8        2        3        6        6 </v>
   <v type="int" >        4        2        6        6        6 </v>
   <v type="int" >        4        2        2        2        6 </v>
   <v type="int" >        8        2        2        6       11 </v>
   <v type="int" >        4        2        6        6       11 </v>
   <v type="int" >       16        1        2        2        8 </v>
   <v type="int" >        4        2        2        2        8 </v>
   <v type="int" >       12        2        2        8       11 </v>
   <v type="int" >       16        1        2        8        8 </v>
   <v type="int" >        4        2        8        8       18 </v>
   <v type="int" >        4        2        8       11       18 </v>
   <v type="int" >       20        1        5        8        8 </v>
   <v type="int" >        4        1        8        8        8 </v>
   <v type="int" >        4        8        8        8       18 </v>
   <v type="int" >        8        5        8        8        8 </v>
   <v type="int" >        4        8        8        8       11 </v>
   <v type="int" >        4        8        8       11       18 </v>
   <v type="int" >        8        1        2        5        8 </v>
   <v type="int" >        8        2        5        8        8 </v>
   <v type="int" >        8        2        8        8       11 </v>
   <v type="int" >        4        2        2        6        8 </v>
   <v type="int" >        4        2        6        8       11 </v>
   <v type="int" >        4        6        7        9       16 </v>
   <v type="int" >       16        7        9       16       17 </v>
   <v type="int" >       12        9       16       17       17 </v>
   <v type="int" >       20        7        7        9       17 </v>
   <v type="int" >       12        7        9       17       17 </v>
   <v type="int" >        8        7        7       17       17 </v>
   <v type="int" >       12        3        6        7       16 </v>
   <v type="int" >        8        3        7        7       16 </v>
   <v type="int" >        8        3        6        6       16 </v>
   <v type="int" >        4        3        6       13       16 </v>
   <v type="int" >        4        3        7       13       16 </v>
   <v type="int" >        4        2        6        6       10 </v>
   <v type="int" >        4        3        6        6       10 </v>
   <v type="int" >        8        3        6       10       13 </v>
   <v type="int" >       12        2        6       10       11 </v>
   <v type="int" >        4        6       10       11       19 </v>
   <v type="int" >        4        6       10       13       19 </v>
   <v type="int" >        4        2        8       11       11 </v>
   <v type="int" >        4        2       10       11       11 </v>
   <v type="int" >        4       10       11       11       19 </v>
   <v type="int" >        8        8       11       11       18 </v>
   <v type="int" >        8       11       11       18       19 </v>
   <v type="int" >        4       11       11       19       19 </v>
   <v type="int" >        4        8        8       10       18 </v>
   <v type="int" >       12        8       10       11       18 </v>
   <v type="int" >       12       10       11       18       19 </v>
   <v type="int" >        4       10       11       13       18 </v>
   <v type="int" >        4       10       13       18       19 </v>
   <v type="int" >        4        2        3        8       11 </v>
   <v type="int" >        4        3        8       10       11 </v>
   <v type="int" >        8        3       10       11       13 </v>
   <v type="int" >       16        2        3        6       11 </v>
   <v type="int" >        4        3        6        7       11 </v>
   <v type="int" >        4        3        7       11       13 </v>
   <v type="int" >        4        4        7        9       17 </v>
   <v type="int" >        8        4        7        7       17 </v>
   <v type="int" >        4        4        7       14       17 </v>
   <v type="int" >        4        3        7        7       12 </v>
   <v type="int" >        8        4        7        7       12 </v>
   <v type="int" >        8        4        7       12       14 </v>
   <v type="int" >        8        3        7       12       13 </v>
   <v type="int" >        4        7       12       13       20 </v>
   <v type="int" >        4        7       12       14       20 </v>
   <v type="int" >        4        3       10       13       13 </v>
   <v type="int" >        4        3       12       13       13 </v>
   <v type="int" >        4       12       13       13       20 </v>
   <v type="int" >        8       10       13       13       19 </v>
   <v type="int" >       12       13       13       19       21 </v>
   <v type="int" >        4       13       13       20       21 </v>
   <v type="int" >        8       10       11       13       19 </v>
   <v type="int" >        8       11       13       19       19 </v>
   <v type="int" >        4       13       19       19       20 </v>
   <v type="int" >        8       13       19       20       21 </v>
   <v type="int" >        4       10       11       12       19 </v>
   <v type="int" >        4       11       12       13       19 </v>
   <v type="int" >        8       12       13       19       20 </v>
   <v type="int" >        8       10       12       13       19 </v>
   <v type="int" >        4       12       13       14       19 </v>
   <v type="int" >        4       12       14       19       20 </v>
   <v type="int" >        4        3        4       10       13 </v>
   <v type="int" >        4        4       10       12       13 </v>
   <v type="int" >       12        4       12       13       14 </v>
   <v type="int" >       12        3        4        7       13 </v>
   <v type="int" >        8        4        7        7       13 </v>
   <v type="int" >       12        4        7       13       14 </v>
   <v type="int" >        4        4       12       14       14 </v>
   <v type="int" >        4       12       14       14       20 </v>
   <v type="int" >        4       14       14       20       22 </v>
   <v type="int" >        4       12       13       15       20 </v>
   <v type="int" >        4       12       14       15       20 </v>
   <v type="int" >        8       14       15       20       22 </v>
   <v type="int" >       12       13       15       20       21 </v>
   <v type="int" >       12       15       20       21       22 </v>
   <v type="int" >        4       15       20       22       22 </v>
   <v type="int" >        4       13       13       14       21 </v>
   <v type="int" >       12       13       14       15       21 </v>
   <v type="int" >       16       14       15       21       22 </v>
   <v type="int" >        8       13       14       20       21 </v>
   <v type="int" >        4       14       20       20       21 </v>
   <v type="int" >       12       14       20       21       22 </v>
   <v type="int" >        4       12       12       13       20 </v>
   <v type="int" >        8       12       13       14       20 </v>
   <v type="int" >        8       12       14       20       20 </v>
   <v type="int" >        8       12       12       14       20 </v>
   <v type="int" >        4       12       13       20       20 </v>
   <v type="int" >       16        3        4       12       14 </v>
   <v type="int" >        8        3       12       12       14 </v>
   <v type="int" >        8        3       12       13       14 </v>
   <v type="int" >       16        3        4        7       14 </v>
   <v type="int" >        4        3        6        7       14 </v>
   <v type="int" >        4        3        6       13       14 </v>
   <v type="int" >        8       14       15       15       22 </v>
   <v type="int" >        8       15       15       22       22 </v>
   <v type="int" >        8       15       21       22       22 </v>
   <v type="int" >       12       13       14       15       22 </v>
   <v type="int" >        4       13       15       15       22 </v>
   <v type="int" >        8       13       15       21       22 </v>
   <v type="int" >       12       13       14       20       22 </v>
   <v type="int" >        4       13       19       20       22 </v>
   <v type="int" >        4       13       19       21       22 </v>
   <v type="int" >        4       10       12       14       20 </v>
   <v type="int" >        4       10       13       14       20 </v>
   <v type="int" >        8       10       13       19       20 </v>
   <v type="int" >        8       10       12       13       20 </v>
   <v type="int" >        4       10       11       13       20 </v>
   <v type="int" >        4       10       11       19       20 </v>
   <v type="int" >        4        2        3       12       13 </v>
   <v type="int" >        4        2       10       12       13 </v>
   <v type="int" >        8        2       10       11       13 </v>
   <v type="int" >       12        2        3        6       13 </v>
   <v type="int" >        4        2        2        6       13 </v>
   <v type="int" >        4        2        2       11       13 </v>
   <v type="int" >        4       11       13       15       21 </v>
   <v type="int" >        8       11       13       19       21 </v>
   <v type="int" >        4       11       18       19       21 </v>
   <v type="int" >        4        8       10       13       19 </v>
   <v type="int" >        4        8       11       13       19 </v>
   <v type="int" >        8        8       11       18       19 </v>
   <v type="int" >        8        8       10       11       19 </v>
   <v type="int" >        4        8        8       11       19 </v>
   <v type="int" >        4        8        8       18       19 </v>
   <v type="int" >        4        1        2       10       11 </v>
   <v type="int" >        4        1        8       10       11 </v>
   <v type="int" >        8        1        8        8       11 </v>
   <v type="int" >        8        1        2        2       11 </v>
   <v type="int" >       12        1        2        8       11 </v>
   <v type="int" >        4        5        8       11       18 </v>
   <v type="int" >        4        5        8        8       18 </v>
   <v type="int" >        4        1        5        8       18 </v>
   <v type="int" >        4        5        5        8        8 </v>
   <v type="int" >       12        1        5        5        8 </v>
   <v type="int" >        6        1        1        5        5 </v>
   <v type="int" >        8        1        1        5        8 </v>
   <v type="int" >        4        1        1        2        8 </v>
   <v type="int" >        4        2        3        6       16 </v>
   <v type="int" >        4        3        7       16       17 </v>
   <v type="int" >       12        7       16       17       17 </v>
   <v type="int" >        8        7       17       17       17 </v>
   <v type="int" >       12        7        7        9       16 </v>
   <v type="int" >        4        6        6        7        7 </v>
   <v type="int" >       16        3        6        7       13 </v>
   <v type="int" >       12        6        7        7       13 </v>
   <v type="int" >        4        3        6        6       11 </v>
   <v type="int" >       12        3        6       11       13 </v>
   <v type="int" >       12        2        3       10       11 </v>
   <v type="int" >        4        3       10       11       19 </v>
   <v type="int" >        4        3       11       13       19 </v>
   <v type="int" >        4        2        8       10       18 </v>
   <v type="int" >        4        2       10       11       18 </v>
   <v type="int" >        4       10       18       19       19 </v>
   <v type="int" >        4        8        8       11       11 </v>
   <v type="int" >        4        8       10       11       11 </v>
   <v type="int" >        4       10       11       11       13 </v>
   <v type="int" >        4       11       11       13       19 </v>
   <v type="int" >        4        2        6        8       10 </v>
   <v type="int" >        4        6        8       10       11 </v>
   <v type="int" >       12        6       10       11       13 </v>
   <v type="int" >        8        2        3        6       10 </v>
   <v type="int" >        4        3        6        7       10 </v>
   <v type="int" >        4        6        7       10       13 </v>
   <v type="int" >        4       16       17       17       17 </v>
   <v type="int" >        4       17       17       17       17 </v>
   <v type="int" >        4        9       17       17       17 </v>
   <v type="int" >        8        7        7       15       17 </v>
   <v type="int" >        8        7        9       15       17 </v>
   <v type="int" >        4        6        7       13       16 </v>
   <v type="int" >        4        7        7       13       16 </v>
   <v type="int" >       12        7        7       13       15 </v>
   <v type="int" >        8        6        7       13       13 </v>
   <v type="int" >        4        7       13       13       21 </v>
   <v type="int" >        4        7       13       15       21 </v>
   <v type="int" >        4        6       11       13       19 </v>
   <v type="int" >        4        6       13       13       19 </v>
   <v type="int" >        4       13       19       19       23 </v>
   <v type="int" >        4       13       19       21       23 </v>
   <v type="int" >        4       11       18       19       19 </v>
   <v type="int" >        4       11       19       19       19 </v>
   <v type="int" >        4       19       19       19       23 </v>
   <v type="int" >        4       18       19       19       19 </v>
   <v type="int" >        4       19       19       19       21 </v>
   <v type="int" >        4       19       19       21       23 </v>
   <v type="int" >        4       11       13       18       19 </v>
   <v type="int" >        4       13       18       19       19 </v>
   <v type="int" >        8       13       19       19       21 </v>
   <v type="int" >       12       11       13       13       19 </v>
   <v type="int" >        4       13       13       15       19 </v>
   <v type="int" >        4       13       15       19       21 </v>
   <v type="int" >        4        6        7       11       13 </v>
   <v type="int" >        4        7       11       13       13 </v>
   <v type="int" >        8        7       13       13       15 </v>
   <v type="int" >        4        7        7        9       13 </v>
   <v type="int" >        4        7        9       13       15 </v>
   <v type="int" >        4        7        9       14       17 </v>
   <v type="int" >       12        7        9       14       15 </v>
   <v type="int" >        4        9       14       15       22 </v>
   <v type="int" >        4        7       13       15       20 </v>
   <v type="int" >        4        7       14       15       20 </v>
   <v type="int" >        4       15       20       21       24 </v>
   <v type="int" >        4       15       20       22       24 </v>
   <v type="int" >        4       13       19       21       21 </v>
   <v type="int" >        4       13       20       21       21 </v>
   <v type="int" >        4       20       21       21       24 </v>
   <v type="int" >        8       19       21       21       23 </v>
   <v type="int" >        8       21       21       23       24 </v>
   <v type="int" >        4       21       21       24       24 </v>
   <v type="int" >        4       19       19       20       23 </v>
   <v type="int" >       12       19       20       21       23 </v>
   <v type="int" >       12       20       21       23       24 </v>
   <v type="int" >        4       20       21       22       23 </v>
   <v type="int" >        4       20       22       23       24 </v>
   <v type="int" >        4       13       14       19       21 </v>
   <v type="int" >        4       14       19       20       21 </v>
   <v type="int" >        4       14       15       15       21 </v>
   <v type="int" >       16        7       13       14       15 </v>
   <v type="int" >        8        7       14       15       15 </v>
   <v type="int" >       16        7        7        9       15 </v>
   <v type="int" >        4        7        7       15       15 </v>
   <v type="int" >        4       14       20       22       22 </v>
   <v type="int" >        8       20       22       22       24 </v>
   <v type="int" >       16       22       22       24       25 </v>
   <v type="int" >       16       20       21       22       24 </v>
   <v type="int" >        8       21       22       24       24 </v>
   <v type="int" >        4       22       24       24       24 </v>
   <v type="int" >       16       22       24       24       25 </v>
   <v type="int" >        4       20       20       21       24 </v>
   <v type="int" >       12       20       22       24       24 </v>
   <v type="int" >        8       20       20       22       24 </v>
   <v type="int" >        4       20       21       24       24 </v>
   <v type="int" >        4       13       20       20       22 </v>
   <v type="int" >        8       13       20       21       22 </v>
   <v type="int" >        4       13       13       15       22 </v>
   <v type="int" >        4       13       13       21       22 </v>
   <v type="int" >        4        6        7       14       15 </v>
   <v type="int" >        4        6       13       14       15 </v>
   <v type="int" >        4        6       13       13       15 </v>
   <v type="int" >        4        6        7        7       15 </v>
   <v type="int" >        4        3        6        7       15 </v>
   <v type="int" >        4        3        6       13       15 </v>
   <v type="int" >        8       21       22       22       25 </v>
   <v type="int" >       12       21       22       24       25 </v>
   <v type="int" >        4       21       23       24       25 </v>
   <v type="int" >        4       19       20       22       24 </v>
   <v type="int" >        4       19       21       22       24 </v>
   <v type="int" >        8       19       21       23       24 </v>
   <v type="int" >        8       19       20       21       24 </v>
   <v type="int" >        4       19       19       21       24 </v>
   <v type="int" >        4       19       19       23       24 </v>
   <v type="int" >        4       11       13       20       21 </v>
   <v type="int" >        4       11       19       20       21 </v>
   <v type="int" >        4       11       19       19       21 </v>
   <v type="int" >        4       11       13       13       21 </v>
   <v type="int" >        4       10       11       13       21 </v>
   <v type="int" >        4       10       11       19       21 </v>
   <v type="int" >        4        2        6       13       13 </v>
   <v type="int" >        4        2       11       13       13 </v>
   <v type="int" >       12        2        3       10       13 </v>
   <v type="int" >        4        2       10       10       13 </v>
   <v type="int" >        4       18       19       21       23 </v>
   <v type="int" >        4       18       19       19       23 </v>
   <v type="int" >        4       11       18       19       23 </v>
   <v type="int" >        4        8       11       19       19 </v>
   <v type="int" >        4        8       18       19       19 </v>
   <v type="int" >        4        2        8       10       19 </v>
   <v type="int" >        4        2        8       11       19 </v>
   <v type="int" >       16        2        8       10       11 </v>
   <v type="int" >        4        8        8       10       11 </v>
   <v type="int" >       12        2        8        8       10 </v>
   <v type="int" >        8        2        8       10       10 </v>
   <v type="int" >        4        8       10       10       11 </v>
   <v type="int" >        4        1        8       11       18 </v>
   <v type="int" >        4        2        8        8        8 </v>
   <v type="int" >        8        2        2        8       10 </v>
   <v type="int" >        4        2        2        3       10 </v>
   <v type="int" >        4        3        4        7       17 </v>
   <v type="int" >        4        4        7       16       17 </v>
   <v type="int" >        4        7        7        7        9 </v>
   <v type="int" >        4        4        7        7       14 </v>
   <v type="int" >        4        7        7        7       14 </v>
   <v type="int" >       12        3        4       12       13 </v>
   <v type="int" >        4        4       12       13       20 </v>
   <v type="int" >        4        4       13       14       20 </v>
   <v type="int" >        4        3       10       12       19 </v>
   <v type="int" >        4        3       12       13       19 </v>
   <v type="int" >        4       12       13       19       21 </v>
   <v type="int" >        4       12       19       20       21 </v>
   <v type="int" >        4       10       13       19       19 </v>
   <v type="int" >        8       13       13       19       20 </v>
   <v type="int" >        4       10       11       13       13 </v>
   <v type="int" >        4       10       12       13       13 </v>
   <v type="int" >        4       12       13       13       14 </v>
   <v type="int" >        4       13       13       14       20 </v>
   <v type="int" >        4        3        7       10       12 </v>
   <v type="int" >        4        7       10       12       13 </v>
   <v type="int" >        8        7       12       13       14 </v>
   <v type="int" >        8        3        4        7       12 </v>
   <v type="int" >        4        7        7       12       14 </v>
   <v type="int" >        4        7        9       15       16 </v>
   <v type="int" >       12        7        9       15       15 </v>
   <v type="int" >        8        7        7       14       15 </v>
   <v type="int" >        4        7       14       15       22 </v>
   <v type="int" >        4        7       15       15       22 </v>
   <v type="int" >        4        7       13       14       21 </v>
   <v type="int" >        4        7       14       15       21 </v>
   <v type="int" >        4       14       20       21       24 </v>
   <v type="int" >        4       14       21       22       24 </v>
   <v type="int" >        4       13       19       20       23 </v>
   <v type="int" >        4       13       20       21       23 </v>
   <v type="int" >        4       20       23       24       24 </v>
   <v type="int" >        4       19       19       21       21 </v>
   <v type="int" >        4       19       20       21       21 </v>
   <v type="int" >        4       20       21       21       22 </v>
   <v type="int" >        4       21       21       22       24 </v>
   <v type="int" >        4       13       15       19       20 </v>
   <v type="int" >        4       15       19       20       21 </v>
   <v type="int" >        8       13       14       15       20 </v>
   <v type="int" >        4       14       15       15       20 </v>
   <v type="int" >        4       15       15       20       22 </v>
   <v type="int" >        4        7        9       13       14 </v>
   <v type="int" >        4        9       13       14       15 </v>
   <v type="int" >        8        9       14       15       15 </v>
   <v type="int" >        8        7        7        9       14 </v>
   <v type="int" >        4        9       15       15       22 </v>
   <v type="int" >        4       15       22       22       25 </v>
   <v type="int" >        4       15       21       22       24 </v>
   <v type="int" >        4       15       22       22       24 </v>
   <v type="int" >        8       22       24       24       26 </v>
   <v type="int" >        8       22       24       25       26 </v>
   <v type="int" >        4       21       23       24       24 </v>
   <v type="int" >        4       21       24       24       24 </v>
   <v type="int" >        8       24       24       24       26 </v>
   <v type="int" >        4       23       24       24       24 </v>
   <v type="int" >        4       24       24       24       25 </v>
   <v type="int" >       20       24       24       25       26 </v>
   <v type="int" >        4       21       22       23       24 </v>
   <v type="int" >        4       22       23       24       24 </v>
   <v type="int" >       12       21       22       22       24 </v>
   <v type="int" >        4       22       22       22       24 </v>
   <v type="int" >        4       15       15       21       22 </v>
   <v type="int" >        4       15       22       22       22 </v>
   <v type="int" >        4       15       15       15       22 </v>
   <v type="int" >        4       14       15       22       22 </v>
   <v type="int" >        4        7       15       15       15 </v>
   <v type="int" >        4        4        7        7       15 </v>
   <v type="int" >        4        4        7       14       15 </v>
   <v type="int" >        4       22       24       25       25 </v>
   <v type="int" >        8       24       25       25       26 </v>
   <v type="int" >        6       25       25       26       26 </v>
   <v type="int" >       12       24       25       26       26 </v>
   <v type="int" >        4       24       24       26       26 </v>
   <v type="int" >        8       21       24       24       25 </v>
   <v type="int" >        4       20       21       22       25 </v>
   <v type="int" >        4       20       21       24       25 </v>
   <v type="int" >        4       13       15       22       22 </v>
   <v type="int" >        4       13       21       22       22 </v>
   <v type="int" >        4       12       13       14       22 </v>
   <v type="int" >        4       12       13       20       22 </v>
   <v type="int" >        4        3        7       14       15 </v>
   <v type="int" >        4        3       13       14       15 </v>
   <v type="int" >        4       23       24       25       26 </v>
   <v type="int" >        4       23       24       24       26 </v>
   <v type="int" >        4       21       23       24       26 </v>
   <v type="int" >        4       19       21       24       24 </v>
   <v type="int" >        4       19       23       24       24 </v>
   <v type="int" >        4       13       19       20       24 </v>
   <v type="int" >        4       13       19       21       24 </v>
   <v type="int" >        4       10       13       20       21 </v>
   <v type="int" >        4       10       19       20       21 </v>
   <v type="int" >        4        3       10       12       20 </v>
   <v type="int" >        4        3       10       13       20 </v>
   <v type="int" >        8        3       10       12       13 </v>
   <v type="int" >        4       10       10       12       13 </v>
   <v type="int" >        8        3       10       10       12 </v>
   <v type="int" >        8        3       10       12       12 </v>
   <v type="int" >        4       10       12       12       13 </v>
   <v type="int" >        4       11       19       21       23 </v>
   <v type="int" >        4        6       11       13       21 </v>
   <v type="int" >        4        2       10       13       19 </v>
   <v type="int" >        4        2       11       13       19 </v>
   <v type="int" >        8        2        6       11       13 </v>
   <v type="int" >        4        2        6        6       13 </v>
   <v type="int" >        4        3       10       10       11 </v>
   <v type="int" >        4        3       11       13       13 </v>
   <v type="int" >        4        2        2        6       10 </v>
   <v type="int" >        4        6       10       12       13 </v>
   <v type="int" >        4        3        6       10       12 </v>
   <v type="int" >        4        2        3        3       10 </v>
   <v type="int" >        4        3        3       10       12 </v>
   <v type="int" >        4        3        3        4       12 </v>
   <v type="int" >        4        3        4        7       16 </v>
   <v type="int" >        4        6        7        7        7 </v>
   <v type="int" >        4        6        6        7       13 </v>
   <v type="int" >        8        3        7        7       14 </v>
   <v type="int" >        8        3        7       13       14 </v>
   <v type="int" >        4        3       12       14       20 </v>
   <v type="int" >        4        3       13       14       20 </v>
   <v type="int" >        4        4       12       12       20 </v>
   <v type="int" >        4        4       12       14       20 </v>
   <v type="int" >        4       12       14       20       22 </v>
   <v type="int" >        4       12       20       20       22 </v>
   <v type="int" >        4       12       13       14       21 </v>
   <v type="int" >        4       12       14       20       21 </v>
   <v type="int" >        4       14       21       22       22 </v>
   <v type="int" >        4       13       13       15       20 </v>
   <v type="int" >        4       14       15       20       20 </v>
   <v type="int" >        4       15       20       20       22 </v>
   <v type="int" >        4       12       13       14       14 </v>
   <v type="int" >        4       13       14       14       20 </v>
   <v type="int" >        2       14       14       20       20 </v>
   <v type="int" >        2       12       12       14       14 </v>
   <v type="int" >        8        4        7       12       12 </v>
   <v type="int" >        4        7       12       12       14 </v>
   <v type="int" >        4        3        6        7       12 </v>
   <v type="int" >        4        6        7       12       13 </v>
   <v type="int" >        4        6        7       15       16 </v>
   <v type="int" >        8        6        7       13       15 </v>
   <v type="int" >        4        6       13       15       21 </v>
   <v type="int" >        4        7       13       14       22 </v>
   <v type="int" >        4        7       13       15       22 </v>
   <v type="int" >        4       13       20       22       24 </v>
   <v type="int" >        4       13       21       22       24 </v>
   <v type="int" >        4       14       20       20       24 </v>
   <v type="int" >        4       14       20       22       24 </v>
   <v type="int" >        4       20       22       24       25 </v>
   <v type="int" >        4       20       24       24       25 </v>
   <v type="int" >        6       22       22       24       24 </v>
   <v type="int" >        4       20       21       22       22 </v>
   <v type="int" >        2       20       20       22       22 </v>
   <v type="int" >        4        7        7       13       14 </v>
   <v type="int" >        4        3        7       13       13 </v>
   <v type="int" >        4       15       21       22       25 </v>
   <v type="int" >        4       21       24       25       26 </v>
   <v type="int" >        4       24       26       26       26 </v>
   <v type="int" >        6       24       24       25       25 </v>
   <v type="int" >        4        4        7       13       15 </v>
   <v type="int" >        4        4       13       14       15 </v>
   <v type="int" >        8        4       12       12       13 </v>
   <v type="int" >        4       25       26       26       26 </v>
   <v type="int" >        2       26       26       26       26 </v>
   <v type="int" >        4        4       12       12       14 </v>
   <v type="int" >        4       12       12       12       14 </v>
   <v type="int" >        8        4       12       12       12 </v>
   <v type="int" >        4        3        4        4       12 </v>
   <v type="int" >        4        4        4       12       12 </v>
   <v type="int" >        4        1        5        8       11 </v>
   <v type="int" >        4        1        2        6       11 </v>
   <v type="int" >        4        2        8       10       13 </v>
   <v type="int" >        4        2        8       11       13 </v>
   <v type="int" >        4        2        3        7       13 </v>
   <v type="int" >        4        2        6        7       13 </v>
   <v type="int" >        4        3       10       12       14 </v>
   <v type="int" >        4        3       10       13       14 </v>
   <v type="int" >        4        3        4        6       13 </v>
   <v type="int" >        4        4        6        7       13 </v>
   <v type="int" >        4        3       10       11       12 </v>
   <v type="int" >        4        3       11       12       13 </v>
   <v type="int" >        4        2        2        3       11 </v>
   <v type="int" >        6        2        2        8        8 </v>
   <v type="int" >        6        1        1        8        8 </v>
   <v type="int" >        4        5        5        5        8 </v>
   <v type="int" >        4        6       11       13       15 </v>
   <v type="int" >        4        6        7        9       15 </v>
   <v type="int" >        4        7       13       15       15 </v>
   <v type="int" >        4        7        7        7       15 </v>
   <v type="int" >        4        7       13       13       14 </v>
   <v type="int" >        4        3        7        7       13 </v>
   <v type="int" >        4        6       10       13       13 </v>
   <v type="int" >        4        2        6       10       10 </v>
   <v type="int" >        4        3        6       10       10 </v>
   <v type="int" >        4        2        2       10       11 </v>
   <v type="int" >        2        2        2       10       10 </v>
   <v type="int" >        4        1        8        8       10 </v>
   <v type="int" >        4        1        2        8       10 </v>
   <v type="int" >        4        2        3        8       10 </v>
   <v type="int" >        4        3        8       10       10 </v>
   <v type="int" >        4        4        7        9       14 </v>
   <v type="int" >        4        7       12       13       15 </v>
   <v type="int" >        4        7       12       14       15 </v>
   <v type="int" >        4        3        7       12       12 </v>
   <v type="int" >        4        3        3       10       13 </v>
   <v type="int" >        4        3        3       12       13 </v>
   <v type="int" >        2        3        3       12       12 </v>
   <v type="int" >        2        3        3       10       10 </v>
   <v type="int" >        4        2       10       10       12 </v>
   <v type="int" >        4        2        3       10       12 </v>
   <v type="int" >        4        3        4       10       12 </v>
   <v type="int" >        4        4       10       12       12 </v>
   <v type="int" >        4        4        4       12       14 </v>
   <v type="int" >        4        3       12       12       12 </v>
   <v type="int" >        4        3        4       12       12 </v>
   <v type="int" >        4        1        5        5        5 </v>
   <v type="int" >        2        5        5        5        5 </v>
  </varray>
  <i name="volumeweight">      0.00032552 </i>
 </kpoints>
 <parameters>
  <separator name="general" >
   <i type="string" name="SYSTEM">Fe BCC</i>
   <i type="logical" name="LCOMPAT"> F  </i>
  </separator>
  <separator name="electronic" >
   <i type="string" name="PREC">accura</i>
   <i name="ENMAX">    400.00000000</i>
   <i name="ENAUG">    511.36800000</i>
   <i name="EDIFF">      0.00000100</i>
   <i type="int" name="IALGO">    38</i>
   <i type="int" name="IWAVPR">    10</i>
   <i type="int" name="NBANDS">    12</i>
   <i name="NELECT">      8.00000000</i>
   <i type="int" name="TURBO">     0</i>
   <i type="int" name="IRESTART">     0</i>
   <i type="int" name="NREBOOT">     0</i>
   <i type="int" name="NMIN">     0</i>
   <i name="EREF">      0.00000000</i>
   <separator name="electronic smearing" >
    <i type="int" name="ISMEAR">    -5</i>
    <i name="SIGMA">      0.20000000</i>
    <i name="KSPACING">      0.50000000</i>
    <i type="logical" name="KGAMMA"> T  </i>
   </separator>
   <separator name="electronic projectors" >
    <i type="logical" name="LREAL"> F  </i>
    <v name="ROPT">      0.00000000</v>
    <i type="int" name="LMAXPAW">  -100</i>
    <i type="int" name="LMAXMIX">     2</i>
    <i type="logical" name="NLSPLINE"> F  </i>
   </separator>
   <separator name="electronic startup" >
    <i type="int" name="ISTART">     0</i>
    <i type="int" name="ICHARG">     2</i>
    <i type="int" name="INIWAV">     1</i>
   </separator>
   <separator name="electronic spin" >
    <i type="int" name="ISPIN">     2</i>
    <i type="logical" name="LNONCOLLINEAR"> F  </i>
    <v name="MAGMOM">      4.00000000</v>
    <i name="NUPDOWN">     -1.00000000</i>
    <i type="logical" name="LSORBIT"> F  </i>
    <v name="SAXIS">      0.00000000      0.00000000      1.00000000</v>
    <i type="logical" name="LSPIRAL"> F  </i>
    <v name="QSPIRAL">      0.00000000      0.00000000      0.00000000</v>
    <i type="logical" name="LZEROZ"> F  </i>
   </separator>
   <separator name="electronic exchange-correlation" >
    <i type="logical" name="LASPH"> F  </i>
    <i type="logical" name="LMETAGGA"> F  </i>
   </separator>
   <separator name="electronic convergence" >
    <i type="int" name="NELM">    60</i>
    <i type="int" name="NELMDL">    -5</i>
    <i type="int" name="NELMIN">     2</i>
    <i name="ENINI">    400.00000000</i>
    <separator name="electronic convergence detail" >
     <i type="logical" name="LDIAG"> T  </i>
     <i type="logical" name="LSUBROT"> F  </i>
     <i name="WEIMIN">      0.00000000</i>
     <i name="EBREAK">      0.00000002</i>
     <i name="DEPER">      0.30000000</i>
     <i type="int" name="NRMM">     4</i>
     <i name="TIME">      0.40000000</i>
    </separator>
   </separator>
   <separator name="electronic mixer" >
    <i name="AMIX">      0.40000000</i>
    <i name="BMIX">      1.00000000</i>
    <i name="AMIN">      0.10000000</i>
    <i name="AMIX_MAG">      1.60000000</i>
    <i name="BMIX_MAG">      1.00000000</i>
    <separator name="electronic mixer details" >
     <i type="int" name="IMIX">     4</i>
     <i type="logical" name="MIXFIRST"> F  </i>
     <i type="int" name="MAXMIX">   -45</i>
     <i name="WC">    100.00000000</i>
     <i type="int" name="INIMIX">     1</i>
     <i type="int" name="MIXPRE">     1</i>
     <i type="int" name="MREMOVE">     5</i>
    </separator>
   </separator>
   <separator name="electronic dipolcorrection" >
    <i type="logical" name="LDIPOL"> F  </i>
    <i type="logical" name="LMONO"> F  </i>
    <i type="int" name="IDIPOL">     0</i>
    <i name="EPSILON">      1.00000000</i>
    <v name="DIPOL">   -100.00000000   -100.00000000   -100.00000000</v>
    <i name="EFIELD">      0.00000000</i>
   </separator>
  </separator>
  <separator name="grids" >
   <i type="int" name="NGX">    16</i>
   <i type="int" name="NGY">    16</i>
   <i type="int" name="NGZ">    16</i>
   <i type="int" name="NGXF">    32</i>
   <i type="int" name="NGYF">    32</i>
   <i type="int" name="NGZF">    32</i>
   <i type="logical" name="ADDGRID"> F  </i>
  </separator>
  <separator name="ionic" >
   <i type="int" name="NSW">     0</i>
   <i type="int" name="IBRION">    -1</i>
   <i type="int" name="ISIF">     2</i>
   <i name="PSTRESS">      0.00000000</i>
   <i name="EDIFFG">      0.00001000</i>
   <i type="int" name="NFREE">     0</i>
   <i name="POTIM">      0.50000000</i>
   <i name="SMASS">     -3.00000000</i>
   <i name="SCALEE">      1.00000000</i>
  </separator>
  <separator name="ionic md" >
   <i name="TEBEG">      0.00010000</i>
   <i name="TEEND">      0.00010000</i>
   <i type="int" name="NBLOCK">     1</i>
   <i type="int" name="KBLOCK">     1</i>
   <i type="int" name="NPACO">   256</i>
   <i name="APACO">     16.00000000</i>
  </separator>
  <separator name="symmetry" >
   <i type="int" name="ISYM">     2</i>
   <i name="SYMPREC">      0.00001000</i>
  </separator>
  <separator name="dos" >
   <i type="logical" name="LORBIT"> F  </i>
   <v name="RWIGS">     -1.00000000</v>
   <i type="int" name="NEDOS">   301</i>
   <i name="EMIN">     10.00000000</i>
   <i name="EMAX">    -10.00000000</i>
   <i name="EFERMI">      0.00000000</i>
  </separator>
  <separator name="writing" >
   <i type="int" name="NWRITE">     2</i>
   <i type="logical" name="LWAVE"> T  </i>
   <i type="logical" name="LCHARG"> T  </i>
   <i type="logical" name="LPARD"> F  </i>
   <i type="logical" name="LVTOT"> F  </i>
   <i type="logical" name="LVHAR"> F  </i>
   <i type="logical" name="LELF"> F  </i>
   <i type="logical" name="LOPTICS"> F  </i>
   <v name="STM">      0.00000000      0.00000000      0.00000000      0.00000000      0.00000000      0.00000000      0.00000000</v>
  </separator>
  <separator name="performance" >
   <i type="int" name="NPAR">     4</i>
   <i type="int" name="NSIM">     4</i>
   <i type="int" name="NBLK">    -1</i>
   <i type="logical" name="LPLANE"> T  </i>
   <i type="logical" name="LSCALAPACK"> F  </i>
   <i type="logical" name="LSCAAWARE"> F  </i>
   <i type="logical" name="LSCALU"> F  </i>
   <i type="logical" name="LASYNC"> F  </i>
   <i type="logical" name="LORBITALREAL"> F  </i>
  </separator>
  <separator name="miscellaneous" >
   <i type="int" name="IDIOT">     3</i>
   <i type="logical" name="LMUSIC"> F  </i>
   <v name="POMASS">     55.84700000</v>
   <v name="DARWINR">      0.00000000</v>
   <v name="DARWINV">      1.00000000</v>
   <i type="logical" name="LCORR"> T  </i>
  </separator>
  <i type="logical" name="GGA_COMPAT"> T  </i>
  <i type="logical" name="LBERRY"> F  </i>
  <i type="int" name="ICORELEVEL">     0</i>
  <i type="logical" name="LDAU"> F  </i>
  <i type="int" name="I_CONSTRAINED_M">     0</i>
  <separator name="electronic exchange-correlation" >
   <i type="string" name="GGA">--</i>
   <i type="int" name="VOSKOWN">     0</i>
   <i type="logical" name="LHFCALC"> F  </i>
   <i type="string" name="PRECFOCK"></i>
   <i type="logical" name="LSYMGRAD"> F  </i>
   <i type="logical" name="LHFONE"> F  </i>
   <i type="logical" name="LRHFCALC"> F  </i>
   <i type="logical" name="LTHOMAS"> F  </i>
   <i type="logical" name="LMODELHF"> F  </i>
   <i name="ENCUT4O">     -1.00000000</i>
   <i type="int" name="EXXOEP">     0</i>
   <i type="int" name="FOURORBIT">     0</i>
   <i name="AEXX">      0.00000000</i>
   <i name="HFALPHA">      0.00000000</i>
   <i name="MCALPHA">      0.00000000</i>
   <i name="ALDAX">      1.00000000</i>
   <i name="AGGAX">      1.00000000</i>
   <i name="ALDAC">      1.00000000</i>
   <i name="AGGAC">      1.00000000</i>
   <i type="int" name="NKREDX">     1</i>
   <i type="int" name="NKREDY">     1</i>
   <i type="int" name="NKREDZ">     1</i>
   <i type="logical" name="SHIFTRED"> F  </i>
   <i type="logical" name="ODDONLY"> F  </i>
   <i type="logical" name="EVENONLY"> F  </i>
   <i type="int" name="LMAXFOCK">     0</i>
   <i type="int" name="NMAXFOCKAE">     0</i>
   <i type="logical" name="LFOCKAEDFT"> F  </i>
   <i name="HFSCREEN">      0.00000000</i>
   <i name="HFSCREENC">      0.00000000</i>
   <i type="int" name="NBANDSGWLOW">     0</i>
  </separator>
  <separator name="vdW DFT" >
   <i type="logical" name="LUSE_VDW"> F  </i>
   <i name="Zab_VDW">     -0.84910000</i>
   <i name="PARAM1">      0.12340000</i>
   <i name="PARAM2">      1.00000000</i>
   <i name="PARAM3">      0.00000000</i>
  </separator>
  <separator name="model GW" >
   <i type="int" name="MODEL_GW">     0</i>
   <i name="MODEL_EPS0">      6.03709440</i>
   <i name="MODEL_ALPHA">      1.00000000</i>
  </separator>
  <separator name="linear response parameters" >
   <i type="logical" name="LEPSILON"> F  </i>
   <i type="logical" name="LRPA"> F  </i>
   <i type="logical" name="LNABLA"> F  </i>
   <i type="logical" name="LVEL"> F  </i>
   <i type="int" name="KINTER">     0</i>
   <i name="CSHIFT">      0.10000000</i>
   <i name="OMEGAMAX">     -1.00000000</i>
   <i name="DEG_THRESHOLD">      0.00200000</i>
  </separator>
  <separator name="orbital magnetization" >
   <i type="logical" name="NUCIND"> F  </i>
   <v name="MAGPOS">      0.00000000      0.00000000      0.00000000</v>
   <i type="logical" name="LNICSALL"> T  </i>
   <i type="logical" name="ORBITALMAG"> F  </i>
   <i type="logical" name="LMAGBLOCH"> F  </i>
   <i type="logical" name="LCHIMAG"> F  </i>
   <i type="logical" name="LGAUGE"> T  </i>
   <i type="int" name="MAGATOM">     0</i>
   <v name="MAGDIPOL">      0.00000000      0.00000000      0.00000000</v>
   <v name="AVECCONST">      0.00000000      0.00000000      0.00000000</v>
  </separator>
  <separator name="response functions" >
   <i type="logical" name="LADDER"> F  </i>
   <i type="logical" name="LFXC"> F  </i>
   <i type="logical" name="LHARTREE"> T  </i>
   <i type="int" name="IBSE">     0</i>
   <v type="int" name="KPOINT">    -1     0     0     0</v>
   <i type="logical" name="LTCTE"> F  </i>
   <i type="logical" name="LTETE"> F  </i>
   <i type="logical" name="LTRIPLET"> F  </i>
   <i type="logical" name="LFXCEPS"> F  </i>
   <i type="logical" name="LFXHEG"> F  </i>
   <i type="int" name="NATURALO">     0</i>
   <i type="logical" name="L2ORDER"> F  </i>
   <i type="logical" name="LUSEW"> F  </i>
   <i name="ENCUTGW">     -2.00000000</i>
   <i name="ENCUTGWSOFT">     -2.00000000</i>
   <i name="ENCUTLF">     -1.00000000</i>
   <i type="int" name="LMAXMP2">    -1</i>
   <i name="SCISSOR">      0.00000000</i>
   <i type="int" name="NOMEGA">     0</i>
   <i type="int" name="NOMEGAR">     0</i>
   <i type="int" name="NBANDSGW">    -1</i>
   <i type="int" name="NBANDSO">    -1</i>
   <i type="int" name="NBANDSV">    -1</i>
   <i type="int" name="NELM">     1</i>
   <i type="int" name="NELMHF">     1</i>
   <i type="int" name="DIM">     3</i>
   <i type="int" name="ANTIRES">     0</i>
   <i name="OMEGAMAX">    -30.00000000</i>
   <i name="OMEGAMIN">    -30.00000000</i>
   <i name="OMEGATL">   -200.00000000</i>
   <i type="int" name="OMEGAGRID">     0</i>
   <i name="CSHIFT">     -0.10000000</i>
   <i type="logical" name="SELFENERGY"> F  </i>
   <i type="logical" name="LSPECTRAL"> F  </i>
   <i type="logical" name="LSPECTRALGW"> F  </i>
   <i type="logical" name="LSINGLES"> F  </i>
   <i type="logical" name="LFERMIGW"> F  </i>
   <i type="logical" name="ODDONLYGW"> F  </i>
   <i type="logical" name="EVENONLYGW"> F  </i>
   <i type="int" name="NKREDLFX">     1</i>
   <i type="int" name="NKREDLFY">     1</i>
   <i type="int" name="NKREDLFZ">     1</i>
   <i type="int" name="MAXMEM">  1800</i>
   <i type="int" name="TELESCOPE">     0</i>
   <i type="int" name="TAUPAR">     1</i>
   <i type="int" name="OMEGAPAR">    -1</i>
   <i name="LAMBDA">      1.00000000</i>
  </separator>
  <separator name="External order field" >
   <i name="OFIELD_KAPPA">      0.00000000</i>
   <v name="OFIELD_K">      0.00000000      0.00000000      0.00000000</v>
   <i name="OFIELD_Q6_NEAR">      0.00000000</i>
   <i name="OFIELD_Q6_FAR">      0.00000000</i>
   <i name="OFIELD_A">      0.00000000</i>
  </separator>
 </parameters>
 <atominfo>
  <atoms>       1 </atoms>
  <types>       1 </types>
  <array name="atoms" >
   <dimension dim="1">ion</dimension>
   <field type="string">element</field>
   <field type="int">atomtype</field>
   <set>
    <rc><c>Fe</c><c>   1</c></rc>
   </set>
  </array>
  <array name="atomtypes" >
   <dimension dim="1">type</dimension>
   <field type="int">atomspertype</field>
   <field type="string">element</field>
   <field>mass</field>
   <field>valence</field>
   <field type="string">pseudopotential</field>
   <set>
    <rc><c>   1</c><c>Fe</c><c>     55.84700000</c><c>      8.00000000</c><c>  PAW Fe 03Mar1998                      </c></rc>
   </set>
  </array>
 </atominfo>
 <structure name="initialpos" >
  <crystal>
   <varray name="basis" >
    <v>      -1.36000000       1.36000000       1.36000000 </v>
    <v>       1.36000000      -1.36000000       1.36000000 </v>
    <v>       1.36000000       1.36000000      -1.36000000 </v>
   </varray>
   <i name="volume">     10.06182400 </i>
   <varray name="rec_basis" >
    <v>       0.00000000       0.36764706       0.36764706 </v>
    <v>       0.36764706       0.00000000       0.36764706 </v>
    <v>       0.36764706       0.36764706       0.00000000 </v>
   </varray>
  </crystal>
  <varray name="positions" >
   <v>       0.00000000       0.00000000       0.00000000 </v>
  </varray>
 </structure>
 <calculation>
  <scstep>
   <time name="dav">    3.38    3.40</time>
   <time name="total">    3.47    3.50</time>
   <energy>
    <i name="alphaZ">     66.56490513 </i>
    <i name="ewald">   -616.51984843 </i>
    <i name="hartreedc">   -101.88666555 </i>
    <i name="XCdc">      6.83533354 </i>
    <i name="pawpsdc">    552.76102510 </i>
    <i name="pawaedc">   -562.19386350 </i>
    <i name="eentropy">      0.00000000 </i>
    <i name="bandstr">     71.48477427 </i>
    <i name="atom">    597.35192723 </i>
    <i name="e_fr_energy">     14.39758778 </i>
    <i name="e_wo_entrp">     14.39758778 </i>
    <i name="e_0_energy">     14.39758778 </i>
   </energy>
  </scstep>
  <scstep>
   <time name="dav">    3.57    3.80</time>
   <time name="total">    3.70    3.94</time>
   <energy>
    <i name="e_fr_energy">     -9.21978642 </i>
    <i name="e_wo_entrp">     -9.21978642 </i>
    <i name="e_0_energy">     -9.21978642 </i>
   </energy>
  </scstep>
  <scstep>
   <time name="dav">    4.21    3.98</time>
   <time name="total">    4.29    4.06</time>
   <energy>
    <i name="e_fr_energy">     -9.71211743 </i>
    <i name="e_wo_entrp">     -9.71211743 </i>
    <i name="e_0_energy">     -9.71211743 </i>
   </energy>
  </scstep>
  <scstep>
   <time name="dav">    3.22    3.23</time>
   <time name="total">    3.31    3.32</time>
   <energy>
    <i name="e_fr_energy">     -9.71369803 </i>
    <i name="e_wo_entrp">     -9.71369803 </i>
    <i name="e_0_energy">     -9.71369803 </i>
   </energy>
  </scstep>
  <scstep>
   <time name="dav">    3.76    3.77</time>
   <time name="total">    3.89    3.90</time>
   <energy>
    <i name="e_fr_energy">     -9.71370759 </i>
    <i name="e_wo_entrp">     -9.71370759 </i>
    <i name="e_0_energy">     -9.71370759 </i>
   </energy>
  </scstep>
  <scstep>
   <time name="dav">    3.68    3.61</time>
   <time name="total">    3.83    3.75</time>
   <energy>
    <i name="e_fr_energy">     -9.26539897 </i>
    <i name="e_wo_entrp">     -9.26539897 </i>
    <i name="e_0_energy">     -9.26539897 </i>
   </energy>
  </scstep>
  <scstep>
   <time name="dav">    3.79    3.86</time>
   <time name="total">    3.95    4.02</time>
   <energy>
    <i name="e_fr_energy">     -9.24343749 </i>
    <i name="e_wo_entrp">     -9.24343749 </i>
    <i name="e_0_energy">     -9.24343749 </i>
   </energy>
  </scstep>
  <scstep>
   <time name="dav">    3.68    3.60</time>
   <time name="total">    3.82    3.74</time>
   <energy>
    <i name="e_fr_energy">     -9.22993513 </i>
    <i name="e_wo_entrp">     -9.22993513 </i>
    <i name="e_0_energy">     -9.22993513 </i>
   </energy>
  </scstep>
  <scstep>
   <time name="dav">    3.59    3.56</time>
   <time name="total">    3.71    3.69</time>
   <energy>
    <i name="e_fr_energy">     -9.22089938 </i>
    <i name="e_wo_entrp">     -9.22089938 </i>
    <i name="e_0_energy">     -9.22089938 </i>
   </energy>
  </scstep>
  <scstep>
   <time name="dav">    3.48    3.49</time>
   <time name="total">    3.61    3.62</time>
   <energy>
    <i name="e_fr_energy">     -9.22098323 </i>
    <i name="e_wo_entrp">     -9.22098323 </i>
    <i name="e_0_energy">     -9.22098323 </i>
   </energy>
  </scstep>
  <scstep>
   <time name="dav">    3.60    3.61</time>
   <time name="total">    3.73    3.74</time>
   <energy>
    <i name="e_fr_energy">     -9.22124625 </i>
    <i name="e_wo_entrp">     -9.22124625 </i>
    <i name="e_0_energy">     -9.22124625 </i>
   </energy>
  </scstep>
  <scstep>
   <time name="dav">    3.15    3.16</time>
   <time name="total">    3.30    3.30</time>
   <energy>
    <i name="e_fr_energy">     -9.22130268 </i>
    <i name="e_wo_entrp">     -9.22130268 </i>
    <i name="e_0_energy">     -9.22130268 </i>
   </energy>
  </scstep>
  <scstep>
   <time name="dav">    1.93    1.93</time>
   <time name="total">    2.05    2.05</time>
   <energy>
    <i name="e_fr_energy">     -9.22127223 </i>
    <i name="e_wo_entrp">     -9.22127223 </i>
    <i name="e_0_energy">     -9.22127223 </i>
   </energy>
  </scstep>
  <scstep>
   <time name="dav">    2.02    2.02</time>
   <time name="total">    2.17    2.15</time>
   <energy>
    <i name="e_fr_energy">     -9.22125021 </i>
    <i name="e_wo_entrp">     -9.22125021 </i>
    <i name="e_0_energy">     -9.22125021 </i>
   </energy>
  </scstep>
  <scstep>
   <time name="dav">    1.91    1.92</time>
   <time name="total">    2.05    2.06</time>
   <energy>
    <i name="e_fr_energy">     -9.22124612 </i>
    <i name="e_wo_entrp">     -9.22124612 </i>
    <i name="e_0_energy">     -9.22124612 </i>
   </energy>
  </scstep>
  <scstep>
   <time name="dav">    1.91    1.91</time>
   <time name="total">    2.01    2.01</time>
   <energy>
    <i name="alphaZ">     66.56490513 </i>
    <i name="ewald">   -616.51984843 </i>
    <i name="hartreedc">    -85.73554234 </i>
    <i name="XCdc">      4.70752000 </i>
    <i name="pawpsdc">    774.14891866 </i>
    <i name="pawaedc">   -785.24483289 </i>
    <i name="eentropy">      0.00000000 </i>
    <i name="bandstr">     35.50570644 </i>
    <i name="atom">    597.35192723 </i>
    <i name="e_fr_energy">     -9.22124620 </i>
    <i name="e_wo_entrp">     -9.22124620 </i>
    <i name="e_0_energy">     -9.22124620 </i>
   </energy>
  </scstep>
  <structure>
   <crystal>
    <varray name="basis" >
     <v>      -1.36000000       1.36000000       1.36000000 </v>
     <v>       1.36000000      -1.36000000       1.36000000 </v>
     <v>       1.36000000       1.36000000      -1.36000000 </v>
    </varray>
    <i name="volume">     10.06182400 </i>
    <varray name="rec_basis" >
     <v>       0.00000000       0.36764706       0.36764706 </v>
     <v>       0.36764706       0.00000000       0.36764706 </v>
     <v>       0.36764706       0.36764706       0.00000000 </v>
    </varray>
   </crystal>
   <varray name="positions" >
    <v>       0.00000000       0.00000000       0.00000000 </v>
   </varray>
  </structure>
  <varray name="forces" >
   <v>       0.00000000       0.00000000       0.00000000 </v>
  </varray>
  <varray name="stress" >
   <v>      78.83654479       0.00000000       0.00000000 </v>
   <v>      -0.00000000      78.83654479       0.00000000 </v>
   <v>      -0.00000000       0.00000000      78.83654479 </v>
  </varray>
  <energy>
   <i name="e_fr_energy">     -9.22124620 </i>
   <i name="e_wo_entrp">     -9.22124620 </i>
   <i name="e_0_energy">      0.00000000 </i>
  </energy>
  <time name="totalsc">   53.18   53.34</time>
  <eigenvalues>
   <array>
    <dimension dim="1">band</dimension>
    <dimension dim="2">kpoint</dimension>
    <dimension dim="3">spin</dimension>
    <field>eigene</field>
    <field>occ</field>
    <set>
     <set comment="spin 1">
      <set comment="kpoint 1">
       <r>   -1.1574    1.0000 </r>
       <r>    4.2692    1.0000 </r>
       <r>    4.2692    1.0000 </r>
       <r>    5.2591    1.0000 </r>
       <r>    6.0706    1.0000 </r>
       <r>    6.0706    1.0027 </r>
       <r>   29.7099    0.0000 </r>
       <r>   29.7099    0.0000 </r>
       <r>   34.0604    0.0000 </r>
       <r>   34.9278    0.0000 </r>
       <r>   40.2062    0.0000 </r>
       <r>   40.2062    0.0000 </r>
      </set>
      <set comment="kpoint 2">
       <r>    0.5562    1.0000 </r>
       <r>    3.7598    1.0000 </r>
       <r>    4.0182    1.0000 </r>
       <r>    5.9839    1.0000 </r>
       <r>    6.2307    1.0021 </r>
       <r>    6.5010    0.8424 </r>
       <r>   24.3271    0.0000 </r>
       <r>   27.3376    0.0000 </r>
       <r>   30.6510    0.0000 </r>
       <r>   34.6815    0.0000 </r>
       <r>   39.9385    0.0000 </r>
       <r>   40.8041    0.0000 </r>
      </set>
      <set comment="kpoint 3">
       <r>    1.6696    1.0000 </r>
       <r>    3.3272    1.0000 </r>
       <r>    4.9107    1.0000 </r>
       <r>    6.1550    1.0000 </r>
       <r>    6.3609    1.0311 </r>
       <r>    8.1516   -0.0174 </r>
       <r>   18.7444    0.0000 </r>
       <r>   25.4958    0.0000 </r>
       <r>   28.0162    0.0000 </r>
       <r>   34.4050    0.0000 </r>
       <r>   39.2386    0.0000 </r>
       <r>   44.2329    0.0000 </r>
      </set>
      <set comment="kpoint 4">
       <r>    1.6812    1.0000 </r>
       <r>    3.1619    1.0000 </r>
       <r>    6.0582    1.0000 </r>
       <r>    6.2397    1.0000 </r>
       <r>    6.4154    1.0524 </r>
       <r>    9.5234   -0.0040 </r>
       <r>   15.6251    0.0000 </r>
       <r>   24.8023    0.0000 </r>
       <r>   27.0261    0.0000 </r>
       <r>   34.2429    0.0000 </r>
       <r>   39.1919    0.0000 </r>
       <r>   43.8933    0.0000 </r>
      </set>
      <set comment="kpoint 5">
       <r>   -1.8341    1.0000 </r>
       <r>    4.5239    1.0000 </r>
       <r>    4.5239    1.0000 </r>
       <r>    4.6336    1.0000 </r>
       <r>    5.9745    1.0000 </r>
       <r>    6.2311    1.0000 </r>
       <r>   31.4357    0.0000 </r>
       <r>   32.8958    0.0000 </r>
       <r>   32.8958    0.0000 </r>
       <r>   36.9434    0.0000 </r>
       <r>   39.6967    0.0000 </r>
       <r>   39.6967    0.0000 </r>
      </set>
      <set comment="kpoint 6">
       <r>    2.1165    1.0000 </r>
       <r>    3.4141    1.0000 </r>
       <r>    3.6609    1.0000 </r>
       <r>    6.0848    1.0000 </r>
       <r>    6.3963    1.0017 </r>
       <r>    8.4078   -0.0354 </r>
       <r>   21.6455    0.0000 </r>
       <r>   22.6662    0.0000 </r>
       <r>   26.9485    0.0000 </r>
       <r>   36.7730    0.0000 </r>
       <r>   41.1386    0.0000 </r>
       <r>   43.7398    0.0000 </r>
      </set>
      <set comment="kpoint 7">
       <r>    2.4212    1.0000 </r>
       <r>    3.2092    1.0000 </r>
       <r>    4.4146    1.0000 </r>
       <r>    6.2601    1.0000 </r>
       <r>    6.5069    1.0110 </r>
       <r>   11.0462   -0.0024 </r>
       <r>   16.9436    0.0000 </r>
       <r>   20.9360    0.0000 </r>
       <r>   25.4821    0.0000 </r>
       <r>   37.3191    0.0000 </r>
       <r>   42.0132    0.0000 </r>
       <r>   44.5641    0.0000 </r>
      </set>
      <set comment="kpoint 8">
       <r>   -0.5331    1.0000 </r>
       <r>    4.1886    1.0000 </r>
       <r>    4.4269    1.0000 </r>
       <r>    5.3877    1.0000 </r>
       <r>    5.6595    1.0000 </r>
       <r>    6.3577    1.0051 </r>
       <r>   27.2193    0.0000 </r>
       <r>   30.5742    0.0000 </r>
       <r>   31.8057    0.0000 </r>
       <r>   36.2985    0.0000 </r>
       <r>   36.6710    0.0000 </r>
       <r>   38.2607    0.0000 </r>
      </set>
      <set comment="kpoint 9">
       <r>    2.7800    1.0000 </r>
       <r>    3.6508    1.0000 </r>
       <r>    3.6508    1.0000 </r>
       <r>    6.4338    1.0000 </r>
       <r>    6.4338    1.0087 </r>
       <r>   14.7973    0.0000 </r>
       <r>   14.7973    0.0000 </r>
       <r>   17.7988    0.0000 </r>
       <r>   24.9727    0.0000 </r>
       <r>   39.8992    0.0000 </r>
       <r>   39.8992    0.0000 </r>
       <r>   48.1668    0.0000 </r>
      </set>
      <set comment="kpoint 10">
       <r>    1.1627    1.0000 </r>
       <r>    3.6954    1.0000 </r>
       <r>    4.4886    1.0000 </r>
       <r>    5.8907    1.0000 </r>
       <r>    6.5683    1.0091 </r>
       <r>    6.6336    0.6391 </r>
       <r>   21.3959    0.0000 </r>
       <r>   27.9805    0.0000 </r>
       <r>   29.8817    0.0000 </r>
       <r>   34.4980    0.0000 </r>
       <r>   36.6874    0.0000 </r>
       <r>   39.5595    0.0000 </r>
      </set>
      <set comment="kpoint 11">
       <r>    1.0134    1.0000 </r>
       <r>    3.9249    1.0000 </r>
       <r>    4.1678    1.0000 </r>
       <r>    5.4838    1.0000 </r>
       <r>    6.3212    1.0048 </r>
       <r>    6.7829    0.6655 </r>
       <r>   24.3453    0.0000 </r>
       <r>   25.5947    0.0000 </r>
       <r>   32.1052    0.0000 </r>
       <r>   32.8377    0.0000 </r>
       <r>   36.7335    0.0000 </r>
       <r>   41.6266    0.0000 </r>
      </set>
      <set comment="kpoint 12">
       <r>    1.5488    1.0000 </r>
       <r>    3.3633    1.0000 </r>
       <r>    5.4540    1.0000 </r>
       <r>    6.1176    1.0000 </r>
       <r>    7.6453    0.1854 </r>
       <r>    7.8432    0.0023 </r>
       <r>   16.5344    0.0000 </r>
       <r>   26.4671    0.0000 </r>
       <r>   28.1609    0.0000 </r>
       <r>   33.7405    0.0000 </r>
       <r>   37.1328    0.0000 </r>
       <r>   41.0481    0.0000 </r>
      </set>
      <set comment="kpoint 13">
       <r>    2.0654    1.0000 </r>
       <r>    3.5479    1.0000 </r>
       <r>    4.2496    1.0000 </r>
       <r>    5.8512    1.0000 </r>
       <r>    6.8200    0.9788 </r>
       <r>    8.6911   -0.0387 </r>
       <r>   19.1131    0.0000 </r>
       <r>   23.1554    0.0000 </r>
       <r>   30.0032    0.0000 </r>
       <r>   33.4128    0.0000 </r>
       <r>   37.2642    0.0000 </r>
       <r>   42.3338    0.0000 </r>
      </set>
      <set comment="kpoint 14">
       <r>    2.0602    1.0000 </r>
       <r>    3.5294    1.0000 </r>
       <r>    4.4678    1.0000 </r>
       <r>    5.9920    1.0000 </r>
       <r>    7.2190    0.5568 </r>
       <r>   10.7360   -0.0013 </r>
       <r>   15.6876    0.0000 </r>
       <r>   22.3950    0.0000 </r>
       <r>   29.0605    0.0000 </r>
       <r>   33.8873    0.0000 </r>
       <r>   37.9959    0.0000 </r>
       <r>   41.6501    0.0000 </r>
      </set>
      <set comment="kpoint 15">
       <r>    2.8815    1.0000 </r>
       <r>    3.1892    1.0000 </r>
       <r>    3.8409    1.0000 </r>
       <r>    6.2153    1.0000 </r>
       <r>    6.7771    1.0379 </r>
       <r>   12.2048   -0.0003 </r>
       <r>   16.9255    0.0000 </r>
       <r>   18.5917    0.0000 </r>
       <r>   30.6226    0.0000 </r>
       <r>   33.5755    0.0000 </r>
       <r>   35.9817    0.0000 </r>
       <r>   44.5014    0.0000 </r>
      </set>
      <set comment="kpoint 16">
       <r>    3.1890    1.0000 </r>
       <r>    3.1890    1.0000 </r>
       <r>    3.4222    1.0000 </r>
       <r>    6.3782    1.0000 </r>
       <r>    6.3782    1.0000 </r>
       <r>   11.0944   -0.0032 </r>
       <r>   19.8935    0.0000 </r>
       <r>   19.8935    0.0000 </r>
       <r>   21.7996    0.0000 </r>
       <r>   41.6467    0.0000 </r>
       <r>   44.9101    0.0000 </r>
       <r>   44.9101    0.0000 </r>
      </set>
      <set comment="kpoint 17">
       <r>    3.0585    1.0000 </r>
       <r>    3.1410    1.0000 </r>
       <r>    3.9318    1.0000 </r>
       <r>    6.4201    1.0000 </r>
       <r>    6.4481    1.0001 </r>
       <r>   14.0183    0.0000 </r>
       <r>   16.1591    0.0000 </r>
       <r>   19.2869    0.0000 </r>
       <r>   20.7285    0.0000 </r>
       <r>   42.9267    0.0000 </r>
       <r>   46.6526    0.0000 </r>
       <r>   47.4316    0.0000 </r>
      </set>
      <set comment="kpoint 18">
       <r>    0.5921    1.0000 </r>
       <r>    4.6667    1.0000 </r>
       <r>    4.6988    1.0000 </r>
       <r>    4.6988    1.0000 </r>
       <r>    5.4021    1.0000 </r>
       <r>    6.8034    0.8031 </r>
       <r>   27.1177    0.0000 </r>
       <r>   28.7329    0.0000 </r>
       <r>   28.7329    0.0000 </r>
       <r>   30.7138    0.0000 </r>
       <r>   40.6830    0.0000 </r>
       <r>   40.6830    0.0000 </r>
      </set>
      <set comment="kpoint 19">
       <r>    1.9495    1.0000 </r>
       <r>    3.7016    1.0000 </r>
       <r>    4.5234    1.0000 </r>
       <r>    5.3547    1.0000 </r>
       <r>    6.4867    1.0443 </r>
       <r>    7.7436    0.0307 </r>
       <r>   22.2792    0.0000 </r>
       <r>   25.9966    0.0000 </r>
       <r>   26.8628    0.0000 </r>
       <r>   31.2798    0.0000 </r>
       <r>   39.7531    0.0000 </r>
       <r>   41.7019    0.0000 </r>
      </set>
      <set comment="kpoint 20">
       <r>    2.1820    1.0000 </r>
       <r>    3.6212    1.0000 </r>
       <r>    4.2778    1.0000 </r>
       <r>    5.6405    1.0000 </r>
       <r>    7.5434    0.0558 </r>
       <r>   10.3353   -0.0087 </r>
       <r>   16.9975    0.0000 </r>
       <r>   24.2240    0.0000 </r>
       <r>   25.9627    0.0000 </r>
       <r>   33.7589    0.0000 </r>
       <r>   38.7617    0.0000 </r>
       <r>   39.7533    0.0000 </r>
      </set>
      <set comment="kpoint 21">
       <r>    2.5856    1.0000 </r>
       <r>    2.9310    1.0000 </r>
       <r>    4.6230    1.0000 </r>
       <r>    5.8363    1.0004 </r>
       <r>    7.0200    0.7471 </r>
       <r>   10.2879   -0.0107 </r>
       <r>   19.9574    0.0000 </r>
       <r>   20.7246    0.0000 </r>
       <r>   28.3991    0.0000 </r>
       <r>   30.1982    0.0000 </r>
       <r>   38.4836    0.0000 </r>
       <r>   42.0421    0.0000 </r>
      </set>
      <set comment="kpoint 22">
       <r>    2.4941    1.0000 </r>
       <r>    2.9538    1.0000 </r>
       <r>    4.3813    1.0000 </r>
       <r>    6.2250    1.0011 </r>
       <r>    7.3020    0.1506 </r>
       <r>   13.4366    0.0000 </r>
       <r>   16.0413    0.0000 </r>
       <r>   19.6089    0.0000 </r>
       <r>   28.4392    0.0000 </r>
       <r>   31.6787    0.0000 </r>
       <r>   36.1568    0.0000 </r>
       <r>   40.9436    0.0000 </r>
      </set>
      <set comment="kpoint 23">
       <r>    2.3392    1.0000 </r>
       <r>    2.8742    1.0000 </r>
       <r>    5.6397    1.0000 </r>
       <r>    5.6397    1.0013 </r>
       <r>    6.5312    1.1356 </r>
       <r>    9.6007   -0.0150 </r>
       <r>   22.7903    0.0000 </r>
       <r>   22.7903    0.0000 </r>
       <r>   24.9280    0.0000 </r>
       <r>   27.3909    0.0000 </r>
       <r>   40.4222    0.0000 </r>
       <r>   44.7894    0.0000 </r>
      </set>
      <set comment="kpoint 24">
       <r>    2.1698    1.0000 </r>
       <r>    2.3299    1.0000 </r>
       <r>    5.8121    1.0065 </r>
       <r>    6.1627    1.0410 </r>
       <r>    7.4025    0.0425 </r>
       <r>   12.9054    0.0000 </r>
       <r>   18.0874    0.0000 </r>
       <r>   20.7517    0.0000 </r>
       <r>   25.2249    0.0000 </r>
       <r>   28.2708    0.0000 </r>
       <r>   35.7292    0.0000 </r>
       <r>   44.2524    0.0000 </r>
      </set>
      <set comment="kpoint 25">
       <r>    1.9951    1.0000 </r>
       <r>    1.9951    1.0000 </r>
       <r>    5.9415    1.0195 </r>
       <r>    7.2031    0.8287 </r>
       <r>    7.2031    0.0510 </r>
       <r>   16.5013    0.0000 </r>
       <r>   16.5013    0.0000 </r>
       <r>   17.8359    0.0000 </r>
       <r>   26.6995    0.0000 </r>
       <r>   26.6995    0.0000 </r>
       <r>   33.2966    0.0000 </r>
       <r>   44.8778    0.0000 </r>
      </set>
      <set comment="kpoint 26">
       <r>    1.6704    1.0000 </r>
       <r>    1.6777    1.0000 </r>
       <r>    7.1506    0.8876 </r>
       <r>    7.1506    0.6604 </r>
       <r>    7.3599    0.0108 </r>
       <r>   15.8030    0.0000 </r>
       <r>   18.4540    0.0000 </r>
       <r>   18.4540    0.0000 </r>
       <r>   24.1542    0.0000 </r>
       <r>   25.3887    0.0000 </r>
       <r>   31.7309    0.0000 </r>
       <r>   47.9313    0.0000 </r>
      </set>
     </set>
     <set comment="spin 2">
      <set comment="kpoint 1">
       <r>   -0.7856    1.0000 </r>
       <r>    5.7901    1.0000 </r>
       <r>    5.7901    1.0000 </r>
       <r>    6.8541    0.8240 </r>
       <r>    8.1153   -0.0005 </r>
       <r>    8.1153    0.0000 </r>
       <r>   30.1822    0.0000 </r>
       <r>   30.1822    0.0000 </r>
       <r>   34.2232    0.0000 </r>
       <r>   35.7046    0.0000 </r>
       <r>   40.6524    0.0000 </r>
       <r>   40.6524    0.0000 </r>
      </set>
      <set comment="kpoint 2">
       <r>    1.0038    1.0000 </r>
       <r>    5.2181    1.0000 </r>
       <r>    5.4438    1.0000 </r>
       <r>    7.9651   -0.0715 </r>
       <r>    8.1354   -0.0003 </r>
       <r>    8.3047    0.0000 </r>
       <r>   25.0578    0.0000 </r>
       <r>   27.8717    0.0000 </r>
       <r>   31.3622    0.0000 </r>
       <r>   34.9892    0.0000 </r>
       <r>   40.6052    0.0000 </r>
       <r>   41.2409    0.0000 </r>
      </set>
      <set comment="kpoint 3">
       <r>    2.5680    1.0000 </r>
       <r>    4.7322    1.0000 </r>
       <r>    5.9068    1.0000 </r>
       <r>    8.1138   -0.0019 </r>
       <r>    8.4698    0.0000 </r>
       <r>    9.7142    0.0000 </r>
       <r>   19.6952    0.0000 </r>
       <r>   25.9983    0.0000 </r>
       <r>   28.6658    0.0000 </r>
       <r>   34.8929    0.0000 </r>
       <r>   39.9070    0.0000 </r>
       <r>   44.6297    0.0000 </r>
      </set>
      <set comment="kpoint 4">
       <r>    2.7890    1.0000 </r>
       <r>    4.5471    1.0000 </r>
       <r>    6.9716    1.0000 </r>
       <r>    8.2063    0.0000 </r>
       <r>    8.5412    0.0000 </r>
       <r>   10.7894    0.0000 </r>
       <r>   16.8029    0.0000 </r>
       <r>   25.2806    0.0000 </r>
       <r>   27.6384    0.0000 </r>
       <r>   34.7881    0.0000 </r>
       <r>   39.8860    0.0000 </r>
       <r>   44.2084    0.0000 </r>
      </set>
      <set comment="kpoint 5">
       <r>   -1.4702    1.0000 </r>
       <r>    6.0726    1.0000 </r>
       <r>    6.0726    1.0000 </r>
       <r>    6.1981    1.0318 </r>
       <r>    8.0091   -0.0011 </r>
       <r>    8.3110    0.0000 </r>
       <r>   31.7381    0.0000 </r>
       <r>   33.1537    0.0000 </r>
       <r>   33.1537    0.0000 </r>
       <r>   37.4522    0.0000 </r>
       <r>   40.4437    0.0000 </r>
       <r>   40.4437    0.0000 </r>
      </set>
      <set comment="kpoint 6">
       <r>    2.7966    1.0000 </r>
       <r>    4.7946    1.0000 </r>
       <r>    4.9603    1.0000 </r>
       <r>    8.0716   -0.0026 </r>
       <r>    8.4786    0.0000 </r>
       <r>    9.9584    0.0000 </r>
       <r>   22.4630    0.0000 </r>
       <r>   23.3650    0.0000 </r>
       <r>   27.5843    0.0000 </r>
       <r>   37.0711    0.0000 </r>
       <r>   41.6331    0.0000 </r>
       <r>   44.2436    0.0000 </r>
      </set>
      <set comment="kpoint 7">
       <r>    3.5489    1.0000 </r>
       <r>    4.5434    1.0000 </r>
       <r>    5.5082    1.0000 </r>
       <r>    8.2524    0.0000 </r>
       <r>    8.5744    0.0000 </r>
       <r>   12.2942    0.0000 </r>
       <r>   17.9390    0.0000 </r>
       <r>   21.6570    0.0000 </r>
       <r>   26.0938    0.0000 </r>
       <r>   37.7086    0.0000 </r>
       <r>   42.3994    0.0000 </r>
       <r>   45.1449    0.0000 </r>
      </set>
      <set comment="kpoint 8">
       <r>   -0.1443    1.0000 </r>
       <r>    5.6955    1.0000 </r>
       <r>    5.9368    1.0000 </r>
       <r>    6.9992    0.6538 </r>
       <r>    7.6063    0.0001 </r>
       <r>    8.4462    0.0000 </r>
       <r>   27.8403    0.0000 </r>
       <r>   30.9699    0.0000 </r>
       <r>   32.3386    0.0000 </r>
       <r>   36.8039    0.0000 </r>
       <r>   37.3187    0.0000 </r>
       <r>   38.8120    0.0000 </r>
      </set>
      <set comment="kpoint 9">
       <r>    4.0378    1.0000 </r>
       <r>    4.8600    1.0000 </r>
       <r>    4.8600    1.0000 </r>
       <r>    8.4571    0.0000 </r>
       <r>    8.4571    0.0000 </r>
       <r>   15.8278    0.0000 </r>
       <r>   15.8278    0.0000 </r>
       <r>   18.6287    0.0000 </r>
       <r>   25.6057    0.0000 </r>
       <r>   40.2552    0.0000 </r>
       <r>   40.2552    0.0000 </r>
       <r>   48.8467    0.0000 </r>
      </set>
      <set comment="kpoint 10">
       <r>    1.7940    1.0000 </r>
       <r>    5.1462    1.0000 </r>
       <r>    5.7592    1.0000 </r>
       <r>    7.7465   -0.0369 </r>
       <r>    8.3384   -0.0007 </r>
       <r>    8.6125    0.0000 </r>
       <r>   22.2532    0.0000 </r>
       <r>   28.3659    0.0000 </r>
       <r>   30.5587    0.0000 </r>
       <r>   35.1151    0.0000 </r>
       <r>   37.3091    0.0000 </r>
       <r>   40.0324    0.0000 </r>
      </set>
      <set comment="kpoint 11">
       <r>    1.5115    1.0000 </r>
       <r>    5.4241    1.0000 </r>
       <r>    5.6032    1.0000 </r>
       <r>    7.3231    0.1063 </r>
       <r>    8.0283   -0.0010 </r>
       <r>    8.7676    0.0000 </r>
       <r>   25.1150    0.0000 </r>
       <r>   26.2373    0.0000 </r>
       <r>   32.6009    0.0000 </r>
       <r>   33.3965    0.0000 </r>
       <r>   37.2867    0.0000 </r>
       <r>   42.1231    0.0000 </r>
      </set>
      <set comment="kpoint 12">
       <r>    2.6125    1.0000 </r>
       <r>    4.7791    1.0000 </r>
       <r>    6.7022    1.0000 </r>
       <r>    8.0140   -0.0034 </r>
       <r>    9.2264    0.0000 </r>
       <r>    9.4427    0.0000 </r>
       <r>   17.6429    0.0000 </r>
       <r>   26.8202    0.0000 </r>
       <r>   28.7949    0.0000 </r>
       <r>   34.4089    0.0000 </r>
       <r>   37.8306    0.0000 </r>
       <r>   41.4403    0.0000 </r>
      </set>
      <set comment="kpoint 13">
       <r>    3.0082    1.0000 </r>
       <r>    4.9563    1.0000 </r>
       <r>    5.5406    1.0002 </r>
       <r>    7.6696   -0.0165 </r>
       <r>    8.7155   -0.0001 </r>
       <r>   10.1995    0.0000 </r>
       <r>   20.0428    0.0000 </r>
       <r>   23.8475    0.0000 </r>
       <r>   30.4942    0.0000 </r>
       <r>   33.9940    0.0000 </r>
       <r>   37.7879    0.0000 </r>
       <r>   42.9151    0.0000 </r>
      </set>
      <set comment="kpoint 14">
       <r>    3.2311    1.0000 </r>
       <r>    4.9350    1.0000 </r>
       <r>    5.7593    1.0002 </r>
       <r>    7.8492   -0.0011 </r>
       <r>    9.0364    0.0000 </r>
       <r>   11.8961    0.0000 </r>
       <r>   16.8260    0.0000 </r>
       <r>   23.0753    0.0000 </r>
       <r>   29.5265    0.0000 </r>
       <r>   34.5395    0.0000 </r>
       <r>   38.4030    0.0000 </r>
       <r>   42.2872    0.0000 </r>
      </set>
[...]
       </set>
       <set comment="band 5">
        <r>  0.0084  0.0021  0.0021  0.0163  0.0965  0.3414  0.1056  0.0965  0.3169 </r>
       </set>
       <set comment="band 6">
        <r>  0.0626  0.0532  0.0532  0.2588  0.0895  0.1432  0.0492  0.0895  0.1476 </r>
       </set>
       <set comment="band 7">
        <r>  0.0000  0.2228  0.2228  0.0000  0.1485  0.0000  0.1580  0.1485  0.0527 </r>
       </set>
       <set comment="band 8">
        <r>  0.4725  0.0444  0.0444  0.0281  0.0932  0.0994  0.0014  0.0932  0.0043 </r>
       </set>
       <set comment="band 9">
        <r>  0.0287  0.1920  0.1920  0.0870  0.0619  0.0998  0.0008  0.0619  0.0025 </r>
       </set>
       <set comment="band 10">
        <r>  0.0000  0.0447  0.0447  0.0000  0.0688  0.0000  0.3632  0.0688  0.1211 </r>
       </set>
       <set comment="band 11">
        <r>  0.0250  0.0076  0.0076  0.0332  0.0254  0.1826  0.1133  0.0254  0.3400 </r>
       </set>
       <set comment="band 12">
        <r>  0.1057  0.0352  0.0352  0.1775  0.2753  0.3250  0.0239  0.2753  0.0716 </r>
       </set>
      </set>
      <set comment="kpoint 16">
       <set comment="band 1">
        <r>  0.1616  0.0995  0.0995  0.0995  0.1485  0.1485  0.0000  0.1485  0.0000 </r>
       </set>
       <set comment="band 2">
        <r>  0.0000  0.0163  0.0560  0.0192  0.5029  0.1723  0.0461  0.1467  0.0041 </r>
       </set>
       <set comment="band 3">
        <r>  0.0000  0.0447  0.0050  0.0418  0.0450  0.3757  0.0041  0.4012  0.0461 </r>
       </set>
       <set comment="band 4">
        <r>  0.0000  0.0000  0.0000  0.0001  0.0214  0.0292  0.4797  0.0113  0.4469 </r>
       </set>
       <set comment="band 5">
        <r>  0.0000  0.0001  0.0000  0.0000  0.0199  0.0120  0.4469  0.0299  0.4797 </r>
       </set>
       <set comment="band 6">
        <r>  0.0800  0.0743  0.0743  0.0743  0.2152  0.2152  0.0000  0.2152  0.0000 </r>
       </set>
       <set comment="band 7">
        <r>  0.0000  0.1369  0.1791  0.0488  0.2321  0.0632  0.0348  0.1773  0.0124 </r>
       </set>
       <set comment="band 8">
        <r>  0.0000  0.1063  0.0640  0.1944  0.0830  0.2519  0.0124  0.1377  0.0348 </r>
       </set>
       <set comment="band 9">
        <r>  0.5838  0.0837  0.0837  0.0837  0.0020  0.0020  0.0000  0.0020  0.0000 </r>
       </set>
       <set comment="band 10">
        <r>  0.0000  0.0000  0.0000  0.0000  0.0000  0.0000  0.0000  0.0000  0.0000 </r>
       </set>
       <set comment="band 11">
        <r>  0.0000  0.0022  0.0019  0.0046  0.1506  0.3624  0.0265  0.1709  0.0537 </r>
       </set>
       <set comment="band 12">
        <r>  0.0000  0.0036  0.0039  0.0012  0.3053  0.0936  0.0537  0.2850  0.0265 </r>
       </set>
      </set>
      <set comment="kpoint 17">
       <set comment="band 1">
        <r>  0.0351  0.0000  0.0000  0.1488  0.0000  0.7068  0.0141  0.0000  0.0423 </r>
       </set>
       <set comment="band 2">
        <r>  0.0000  0.0516  0.0516  0.0000  0.4315  0.0000  0.0000  0.4315  0.0000 </r>
       </set>
       <set comment="band 3">
        <r>  0.0000  0.1352  0.1352  0.0000  0.3325  0.0000  0.0000  0.3325  0.0000 </r>
       </set>
       <set comment="band 4">
        <r>  0.0005  0.0000  0.0000  0.0005  0.0000  0.0716  0.2294  0.0000  0.6883 </r>
       </set>
       <set comment="band 5">
        <r>  0.0000  0.0000  0.0000  0.0000  0.0000  0.0000  0.7437  0.0000  0.2479 </r>
       </set>
       <set comment="band 6">
        <r>  0.0000  0.2054  0.2054  0.0000  0.2498  0.0000  0.0000  0.2498  0.0000 </r>
       </set>
       <set comment="band 7">
        <r>  0.2266  0.0000  0.0000  0.2200  0.0000  0.4463  0.0078  0.0000  0.0234 </r>
       </set>
       <set comment="band 8">
        <r>  0.0000  0.1873  0.1873  0.0000  0.2513  0.0000  0.0000  0.2513  0.0000 </r>
       </set>
       <set comment="band 9">
        <r>  0.5698  0.0000  0.0000  0.2157  0.0000  0.0472  0.0020  0.0000  0.0061 </r>
       </set>
       <set comment="band 10">
        <r>  0.0000  0.0003  0.0003  0.0000  0.1506  0.0000  0.0000  0.1506  0.0000 </r>
       </set>
       <set comment="band 11">
        <r>  0.0000  0.0287  0.0287  0.0000  0.0781  0.0000  0.0000  0.0781  0.0000 </r>
       </set>
       <set comment="band 12">
        <r>  0.0139  0.0000  0.0000  0.1056  0.0000  0.1723  0.1241  0.0000  0.3724 </r>
       </set>
      </set>
      <set comment="kpoint 18">
       <set comment="band 1">
        <r>  0.5836  0.0000  0.0000  0.2120  0.0000  0.0000  0.0149  0.0000  0.0448 </r>
       </set>
       <set comment="band 2">
        <r>  0.0000  0.0146  0.0146  0.0000  0.4770  0.0000  0.0000  0.4770  0.0000 </r>
       </set>
       <set comment="band 3">
        <r>  0.0000  0.0146  0.0146  0.0000  0.4770  0.0000  0.0000  0.4770  0.0000 </r>
       </set>
       <set comment="band 4">
        <r>  0.0000  0.0000  0.0000  0.0000  0.0000  0.0000  0.6920  0.0000  0.2307 </r>
       </set>
       <set comment="band 5">
        <r>  0.0000  0.0000  0.0000  0.0000  0.0000  0.9864  0.0000  0.0000  0.0000 </r>
       </set>
       <set comment="band 6">
        <r>  0.0378  0.0000  0.0000  0.0113  0.0000  0.0000  0.2347  0.0000  0.7041 </r>
       </set>
       <set comment="band 7">
        <r>  0.0000  0.0000  0.0000  0.0000  0.0000  0.0000  0.5453  0.0000  0.1818 </r>
       </set>
       <set comment="band 8">
        <r>  0.0000  0.1745  0.1738  0.0000  0.3497  0.0000  0.0000  0.3482  0.0000 </r>
       </set>
       <set comment="band 9">
        <r>  0.0000  0.1738  0.1745  0.0000  0.3482  0.0000  0.0000  0.3497  0.0000 </r>
       </set>
       <set comment="band 10">
        <r>  0.1541  0.0000  0.0000  0.2781  0.0000  0.0000  0.0000  0.0000  0.0001 </r>
       </set>
       <set comment="band 11">
        <r>  0.0000  0.1955  0.1400  0.0000  0.0023  0.0000  0.0000  0.0016  0.0000 </r>
       </set>
       <set comment="band 12">
        <r>  0.0000  0.1400  0.1955  0.0000  0.0016  0.0000  0.0000  0.0023  0.0000 </r>
       </set>
      </set>
      <set comment="kpoint 19">
       <set comment="band 1">
        <r>  0.3375  0.0068  0.0000  0.2473  0.0675  0.0000  0.0934  0.0000  0.1189 </r>
       </set>
       <set comment="band 2">
        <r>  0.0039  0.0320  0.0000  0.0162  0.1608  0.0000  0.4391  0.0000  0.2620 </r>
       </set>
       <set comment="band 3">
        <r>  0.0000  0.0000  0.0287  0.0000  0.0000  0.2864  0.0000  0.6639  0.0000 </r>
       </set>
       <set comment="band 4">
        <r>  0.0000  0.0311  0.0000  0.0107  0.6810  0.0000  0.2390  0.0000  0.0046 </r>
       </set>
       <set comment="band 5">
        <r>  0.0000  0.0000  0.0112  0.0000  0.0000  0.6967  0.0000  0.2741  0.0000 </r>
       </set>
       <set comment="band 6">
        <r>  0.1151  0.0114  0.0000  0.0763  0.0112  0.0000  0.1611  0.0000  0.6027 </r>
       </set>
       <set comment="band 7">
        <r>  0.0900  0.2807  0.0000  0.0346  0.3286  0.0000  0.1544  0.0000  0.0642 </r>
       </set>
       <set comment="band 8">
        <r>  0.0000  0.0000  0.5078  0.0000  0.0000  0.0128  0.0000  0.5103  0.0000 </r>
       </set>
       <set comment="band 9">
        <r>  0.0912  0.0019  0.0000  0.0762  0.0402  0.0000  0.4230  0.0000  0.0578 </r>
       </set>
       <set comment="band 10">
        <r>  0.0588  0.2055  0.0000  0.0645  0.1518  0.0000  0.0433  0.0000  0.1530 </r>
       </set>
       <set comment="band 11">
        <r>  0.0000  0.0000  0.1763  0.0000  0.0000  0.7186  0.0000  0.1581  0.0000 </r>
       </set>
       <set comment="band 12">
        <r>  0.0677  0.1842  0.0000  0.0114  0.1018  0.0000  0.2253  0.0000  0.1055 </r>
       </set>
      </set>
      <set comment="kpoint 20">
       <set comment="band 1">
        <r>  0.1152  0.0025  0.0000  0.0802  0.2720  0.0000  0.4183  0.0000  0.0219 </r>
       </set>
       <set comment="band 2">
        <r>  0.0082  0.0968  0.0000  0.1105  0.0126  0.0000  0.0737  0.0000  0.5923 </r>
       </set>
       <set comment="band 3">
        <r>  0.0000  0.0000  0.0281  0.0000  0.0000  0.4254  0.0000  0.5246  0.0000 </r>
       </set>
       <set comment="band 4">
        <r>  0.0249  0.0143  0.0000  0.0005  0.5297  0.0000  0.3876  0.0000  0.0060 </r>
       </set>
       <set comment="band 5">
        <r>  0.0000  0.0000  0.0032  0.0000  0.0000  0.5559  0.0000  0.4312  0.0000 </r>
       </set>
       <set comment="band 6">
        <r>  0.0788  0.1312  0.0000  0.2710  0.0369  0.0000  0.0307  0.0000  0.3951 </r>
       </set>
       <set comment="band 7">
        <r>  0.2788  0.2096  0.0000  0.0018  0.3322  0.0000  0.1149  0.0000  0.0294 </r>
       </set>
       <set comment="band 8">
        <r>  0.0000  0.0000  0.6187  0.0000  0.0000  0.0791  0.0000  0.2598  0.0000 </r>
       </set>
       <set comment="band 9">
        <r>  0.1024  0.0226  0.0000  0.0537  0.0121  0.0000  0.4663  0.0000  0.0065 </r>
       </set>
       <set comment="band 10">
        <r>  0.0097  0.1493  0.0000  0.0001  0.0323  0.0000  0.0358  0.0000  0.4687 </r>
       </set>
       <set comment="band 11">
        <r>  0.0000  0.0000  0.1467  0.0000  0.0000  0.6237  0.0000  0.4010  0.0000 </r>
       </set>
       <set comment="band 12">
        <r>  0.0040  0.1500  0.0000  0.2100  0.0046  0.0000  0.4561  0.0000  0.1118 </r>
       </set>
      </set>
      <set comment="kpoint 21">
       <set comment="band 1">
        <r>  0.1228  0.0050  0.0050  0.1983  0.0499  0.0005  0.1148  0.0499  0.3445 </r>
       </set>
       <set comment="band 2">
        <r>  0.0000  0.0223  0.0223  0.0000  0.0569  0.0000  0.5623  0.0569  0.1874 </r>
       </set>
       <set comment="band 3">
        <r>  0.0078  0.0184  0.0184  0.0097  0.2536  0.3283  0.0191  0.2536  0.0572 </r>
       </set>
       <set comment="band 4">
        <r>  0.0000  0.0205  0.0205  0.0000  0.3937  0.0000  0.1074  0.3937  0.0358 </r>
       </set>
       <set comment="band 5">
        <r>  0.0148  0.0004  0.0004  0.0082  0.1188  0.6126  0.0272  0.1188  0.0816 </r>
       </set>
       <set comment="band 6">
        <r>  0.1497  0.0234  0.0234  0.2433  0.0437  0.0391  0.0967  0.0437  0.2901 </r>
       </set>
       <set comment="band 7">
        <r>  0.0000  0.2286  0.2286  0.0000  0.1285  0.0000  0.2014  0.1285  0.0671 </r>
       </set>
       <set comment="band 8">
        <r>  0.2410  0.1572  0.1572  0.0316  0.1286  0.0321  0.0043  0.1286  0.0128 </r>
       </set>
       <set comment="band 9">
        <r>  0.0000  0.0650  0.0650  0.0000  0.0610  0.0000  0.4801  0.0610  0.1600 </r>
       </set>
       <set comment="band 10">
        <r>  0.0787  0.1197  0.1197  0.0293  0.0131  0.0025  0.0647  0.0131  0.1941 </r>
       </set>
       <set comment="band 11">
        <r>  0.0019  0.0708  0.0708  0.1212  0.0653  0.2998  0.0668  0.0653  0.2003 </r>
       </set>
       <set comment="band 12">
        <r>  0.1622  0.0003  0.0003  0.1896  0.1348  0.2849  0.0495  0.1348  0.1485 </r>
       </set>
      </set>
      <set comment="kpoint 22">
       <set comment="band 1">
        <r>  0.0265  0.0260  0.0240  0.0260  0.1437  0.0001  0.6610  0.0001  0.0000 </r>
       </set>
       <set comment="band 2">
        <r>  0.0000  0.0783  0.0000  0.0783  0.0000  0.0161  0.0000  0.0161  0.7099 </r>
       </set>
       <set comment="band 3">
        <r>  0.0362  0.0014  0.0241  0.0014  0.1690  0.3474  0.0375  0.3474  0.0000 </r>
       </set>
       <set comment="band 4">
        <r>  0.0117  0.0088  0.0160  0.0088  0.5291  0.1118  0.1745  0.1118  0.0000 </r>
       </set>
       <set comment="band 5">
        <r>  0.0000  0.0125  0.0000  0.0125  0.0000  0.4421  0.0000  0.4421  0.0772 </r>
       </set>
       <set comment="band 6">
        <r>  0.0000  0.2790  0.0000  0.2790  0.0000  0.0479  0.0000  0.0479  0.2862 </r>
       </set>
       <set comment="band 7">
        <r>  0.2635  0.1049  0.0519  0.1049  0.2769  0.0001  0.1508  0.0001  0.0000 </r>
       </set>
       <set comment="band 8">
        <r>  0.1787  0.0021  0.4071  0.0021  0.0044  0.1102  0.0900  0.1102  0.0000 </r>
       </set>
       <set comment="band 9">
        <r>  0.0265  0.0018  0.1530  0.0018  0.0217  0.0174  0.5736  0.0174  0.0000 </r>
       </set>
       <set comment="band 10">
        <r>  0.0000  0.0488  0.0000  0.0488  0.0000  0.0074  0.0000  0.0074  0.6734 </r>
       </set>
       <set comment="band 11">
        <r>  0.0296  0.2082  0.0915  0.2082  0.0007  0.0617  0.1208  0.0617  0.0000 </r>
       </set>
       <set comment="band 12">
        <r>  0.2181  0.0300  0.0060  0.0300  0.2242  0.3439  0.0147  0.3439  0.0000 </r>
       </set>
      </set>
      <set comment="kpoint 23">
       <set comment="band 1">
        <r>  0.1289  0.0000  0.0000  0.2274  0.0000  0.0000  0.1316  0.0000  0.3947 </r>
       </set>
       <set comment="band 2">
        <r>  0.0000  0.0000  0.0000  0.0000  0.0000  0.0000  0.6752  0.0000  0.2251 </r>
       </set>
       <set comment="band 3">
        <r>  0.0000  0.0295  0.0295  0.0000  0.4560  0.0000  0.0000  0.4560  0.0000 </r>
       </set>
       <set comment="band 4">
        <r>  0.0000  0.0295  0.0295  0.0000  0.4560  0.0000  0.0000  0.4560  0.0000 </r>
       </set>
       <set comment="band 5">
        <r>  0.0000  0.0000  0.0000  0.0000  0.0000  0.9803  0.0000  0.0000  0.0000 </r>
       </set>
       <set comment="band 6">
        <r>  0.2171  0.0000  0.0000  0.2313  0.0000  0.0000  0.1254  0.0000  0.3763 </r>
       </set>
       <set comment="band 7">
        <r>  0.0000  0.3037  0.3036  0.0000  0.1816  0.0000  0.0000  0.1816  0.0000 </r>
       </set>
       <set comment="band 8">
        <r>  0.0000  0.3036  0.3037  0.0000  0.1816  0.0000  0.0000  0.1816  0.0000 </r>
       </set>
       <set comment="band 9">
        <r>  0.0000  0.0000  0.0000  0.0000  0.0000  0.0000  0.7395  0.0000  0.2465 </r>
       </set>
       <set comment="band 10">
        <r>  0.2713  0.0000  0.0000  0.0695  0.0000  0.0000  0.0690  0.0000  0.2071 </r>
       </set>
       <set comment="band 11">
        <r>  0.1329  0.0000  0.0000  0.3191  0.0000  0.0000  0.1298  0.0000  0.3893 </r>
       </set>
       <set comment="band 12">
        <r>  0.0000  0.0000  0.0000  0.0000  0.0000  1.2172  0.0000  0.0000  0.0000 </r>
       </set>
      </set>
      <set comment="kpoint 24">
       <set comment="band 1">
        <r>  0.0210  0.0000  0.0000  0.0880  0.0237  0.0000  0.5508  0.0000  0.2151 </r>
       </set>
       <set comment="band 2">
        <r>  0.0007  0.0280  0.0000  0.0218  0.0067  0.0000  0.2726  0.0000  0.5697 </r>
       </set>
       <set comment="band 3">
        <r>  0.0000  0.0000  0.0468  0.0000  0.0000  0.3373  0.0000  0.5869  0.0000 </r>
       </set>
       <set comment="band 4">
        <r>  0.0211  0.0403  0.0000  0.0077  0.8456  0.0000  0.0508  0.0000  0.0015 </r>
       </set>
       <set comment="band 5">
        <r>  0.0000  0.0000  0.0031  0.0000  0.0000  0.6385  0.0000  0.3463  0.0000 </r>
       </set>
       <set comment="band 6">
        <r>  0.1371  0.0492  0.0000  0.4350  0.0283  0.0000  0.0465  0.0000  0.2282 </r>
       </set>
       <set comment="band 7">
        <r>  0.1274  0.4830  0.0000  0.0000  0.1975  0.0000  0.0650  0.0000  0.0544 </r>
       </set>
       <set comment="band 8">
        <r>  0.0000  0.0000  0.6931  0.0000  0.0000  0.0348  0.0000  0.1790  0.0000 </r>
       </set>
       <set comment="band 9">
        <r>  0.0736  0.0040  0.0000  0.0036  0.0114  0.0000  0.8408  0.0000  0.0243 </r>
       </set>
       <set comment="band 10">
        <r>  0.0731  0.1024  0.0000  0.0008  0.0095  0.0000  0.0003  0.0000  0.6598 </r>
       </set>
       <set comment="band 11">
        <r>  0.2857  0.0674  0.0000  0.2798  0.0151  0.0000  0.0995  0.0000  0.1153 </r>
       </set>
       <set comment="band 12">
        <r>  0.0000  0.0000  0.0715  0.0000  0.0000  0.6024  0.0000  0.2848  0.0000 </r>
       </set>
      </set>
      <set comment="kpoint 25">
       <set comment="band 1">
        <r>  0.0000  0.0211  0.0000  0.0211  0.0000  0.0036  0.0000  0.0036  0.8512 </r>
       </set>
       <set comment="band 2">
        <r>  0.0000  0.0070  0.0282  0.0070  0.0048  0.0012  0.8512  0.0012  0.0000 </r>
       </set>
       <set comment="band 3">
        <r>  0.0185  0.0153  0.0153  0.0153  0.3006  0.3006  0.0000  0.3006  0.0000 </r>
       </set>
       <set comment="band 4">
        <r>  0.0000  0.0040  0.0160  0.0040  0.6292  0.1573  0.0153  0.1573  0.0000 </r>
       </set>
       <set comment="band 5">
        <r>  0.0000  0.0120  0.0000  0.0120  0.0000  0.4719  0.0000  0.4719  0.0153 </r>
       </set>
       <set comment="band 6">
        <r>  0.0000  0.3322  0.0000  0.3322  0.0000  0.0317  0.0000  0.0317  0.1887 </r>
       </set>
       <set comment="band 7">
        <r>  0.0000  0.1107  0.4429  0.1107  0.0423  0.0106  0.1887  0.0106  0.0000 </r>
       </set>
       <set comment="band 8">
        <r>  0.2595  0.1446  0.1446  0.1446  0.0593  0.0593  0.0000  0.0593  0.0000 </r>
       </set>
       <set comment="band 9">
        <r>  0.0000  0.0433  0.0000  0.0433  0.0000  0.0048  0.0000  0.0048  0.8839 </r>
       </set>
       <set comment="band 10">
        <r>  0.0000  0.0144  0.0577  0.0144  0.0064  0.0016  0.8839  0.0016  0.0000 </r>
       </set>
       <set comment="band 11">
        <r>  0.4694  0.1006  0.1006  0.1006  0.0036  0.0036  0.0000  0.0036  0.0000 </r>
       </set>
       <set comment="band 12">
        <r>  0.0390  0.0171  0.0171  0.0171  0.2529  0.2529  0.0000  0.2529  0.0000 </r>
       </set>
      </set>
      <set comment="kpoint 26">
       <set comment="band 1">
        <r>  0.0013  0.0000  0.0000  0.0286  0.0000  0.0000  0.2178  0.0000  0.6535 </r>
       </set>
       <set comment="band 2">
        <r>  0.0000  0.0000  0.0000  0.0000  0.0000  0.0000  0.6759  0.0000  0.2253 </r>
       </set>
       <set comment="band 3">
        <r>  0.0000  0.0124  0.0124  0.0000  0.4784  0.0000  0.0000  0.4784  0.0000 </r>
       </set>
       <set comment="band 4">
        <r>  0.0000  0.0124  0.0124  0.0000  0.4784  0.0000  0.0000  0.4784  0.0000 </r>
       </set>
       <set comment="band 5">
        <r>  0.0000  0.0000  0.0000  0.0000  0.0000  0.9875  0.0000  0.0000  0.0000 </r>
       </set>
       <set comment="band 6">
        <r>  0.0851  0.0000  0.0000  0.6611  0.0000  0.0000  0.0318  0.0000  0.0953 </r>
       </set>
       <set comment="band 7">
        <r>  0.0000  0.3919  0.3919  0.0000  0.0329  0.0000  0.0000  0.0329  0.0000 </r>
       </set>
       <set comment="band 8">
        <r>  0.0000  0.3919  0.3919  0.0000  0.0329  0.0000  0.0000  0.0329  0.0000 </r>
       </set>
       <set comment="band 9">
        <r>  0.0000  0.0000  0.0000  0.0000  0.0000  0.0000  0.8347  0.0000  0.2782 </r>
       </set>
       <set comment="band 10">
        <r>  0.0532  0.0000  0.0000  0.0232  0.0000  0.0000  0.2370  0.0000  0.7109 </r>
       </set>
       <set comment="band 11">
        <r>  0.6315  0.0000  0.0000  0.1203  0.0000  0.0000  0.0104  0.0000  0.0312 </r>
       </set>
       <set comment="band 12">
        <r>  0.0000  0.0000  0.0000  0.0000  0.0000  0.3103  0.0000  0.0000  0.0000 </r>
       </set>
      </set>
     </set>
    </set>
   </array>
  </projected>
 </calculation>
 <structure name="finalpos" >
  <crystal>
   <varray name="basis" >
    <v>      -1.36000000       1.36000000       1.36000000 </v>
    <v>       1.36000000      -1.36000000       1.36000000 </v>
    <v>       1.36000000       1.36000000      -1.36000000 </v>
   </varray>
   <i name="volume">     10.06182400 </i>
   <varray name="rec_basis" >
    <v>       0.00000000       0.36764706       0.36764706 </v>
    <v>       0.36764706       0.00000000       0.36764706 </v>
    <v>       0.36764706       0.36764706       0.00000000 </v>
   </varray>
  </crystal>
  <varray name="positions" >
   <v>       0.00000000       0.00000000       0.00000000 </v>
  </varray>
 </structure>
</modeling>
