Si beta-tin                             
   2.70000000000000     
     1.004974    0.000000    0.000000
    -0.502487    0.870333    0.000000
     0.000000    0.000000    1.616866
    S
     2
Direct
  0.000000  0.000000  0.000000
  0.333333  0.666667  0.500000
 
   40   40   64
 -4.6290     -4.2636     -3.2062     -1.5678     0.48254      2.7403      4.9930      7.0485      8.7571      10.025    
  10.820      11.164      11.124      10.800      10.311      9.7750      9.2752      8.8484      8.5223      8.3180    
  8.2485      8.3180      8.5223      8.8484      9.2752      9.7750      10.311      10.800      11.124      11.164    
  10.820      10.025      8.7571      7.0485      4.9930      2.7403     0.48254     -1.5678     -3.2062     -4.2636    
 -4.2636     -4.2636     -3.5512     -2.2019     -.35703      1.7949      4.0440      6.1868      8.0522      9.5195    
  10.527      11.070      11.197      10.992      10.565      10.037      9.5132      9.0467      8.6679      8.4012    
  8.2636      8.2636      8.4012      8.6679      9.0467      9.5132      10.037      10.565      10.992      11.197    
  11.070      10.527      9.5195      8.0522      6.1868      4.0440      1.7949     -.35703     -2.2019     -3.5512    
 -3.2062     -3.5535     -3.2062     -2.2019     -.64777      1.2932      3.4246      5.5432      7.4660      9.0515    
  10.212      10.919      11.196      11.110      10.759      10.258      9.7213      9.2239      8.8001      8.4768    
  8.2745      8.2057      8.2745      8.4768      8.8001      9.2239      9.7213      10.258      10.759      11.110    
  11.196      10.919      10.212      9.0515      7.4660      5.5432      3.4246      1.2932     -.64777     -2.2019    
 -1.5678     -2.2083     -2.2083     -1.5678     -.35703      1.2932      3.2094      5.1993      7.0785      8.6928    
  9.9355      10.754      11.149      11.169      10.895      10.434      9.8967      9.3768      8.9161      8.5434    
  8.2816      8.1467      8.1467      8.2816      8.5434      8.9161      9.3768      9.8967      10.434      10.895    
  11.169      11.149      10.754      9.9355      8.6928      7.0785      5.1993      3.2094      1.2932     -.35703    
 0.48254     -.36874     -.66361     -.36874     0.48254      1.7949      3.4246      5.1993      6.9430      8.4985    
  9.7464      10.616      11.087      11.187      10.982      10.564      10.038      9.5037      9.0146      8.6004    
  8.2858      8.0895      8.0228      8.0895      8.2858      8.6004      9.0146      9.5037      10.038      10.564    
  10.982      11.187      11.087      10.616      9.7464      8.4985      6.9430      5.1993      3.4246      1.7949    
  2.7403      1.7775      1.2663      1.2663      1.7775      2.7403      4.0440      5.5432      7.0785      8.4985    
  9.6794      10.538      11.037      11.186      11.032      10.653      10.145      9.6042      9.0948      8.6475    
  8.2880      8.0366      7.9073      7.9073      8.0366      8.2880      8.6475      9.0948      9.6042      10.145    
  10.653      11.032      11.186      11.037      10.538      9.6794      8.4985      7.0785      5.5432      4.0440    
  4.9930      4.0212      3.3865      3.1660      3.3865      4.0212      4.9930      6.1868      7.4660      8.6928    
  9.7464      10.538      11.018      11.180      11.056      10.708      10.219      9.6785      9.1566      8.6849    
  8.2890      7.9903      7.8045      7.7415      7.8045      7.9903      8.2890      8.6849      9.1566      9.6785    
  10.219      10.708      11.056      11.180      11.018      10.538      9.7464      8.6928      7.4660      6.1868    
  7.0485      6.1595      5.4954      5.1404      5.1404      5.4954      6.1595      7.0485      8.0522      9.0515    
  9.9355      10.616      11.037      11.180      11.063      10.733      10.261      9.7273      9.2004      8.7128    
  8.2895      7.9521      7.7174      7.5971      7.5971      7.7174      7.9521      8.2895      8.7128      9.2004    
  9.7274      10.261      10.733      11.063      11.180      11.037      10.616      9.9355      9.0515      8.0522    
  8.7571      8.0218      7.4106      7.0065      6.8652      7.0065      7.4106      8.0218      8.7571      9.5195    
  10.212      10.754      11.087      11.186      11.056      10.733      10.275      9.7516      9.2265      8.7313    
  8.2898      7.9230      7.6482      7.4781      7.4205      7.4781      7.6482      7.9230      8.2898      8.7313    
  9.2265      9.7516      10.275      10.733      11.056      11.186      11.087      10.754      10.212      9.5195    
  10.025      9.4871      8.9909      8.6111      8.4055      8.4055      8.6111      8.9909      9.4871      10.025    
  10.527      10.919      11.149      11.187      11.032      10.708      10.261      9.7516      9.2352      8.7405    
  8.2899      7.9035      7.5981      7.3871      7.2793      7.2793      7.3871      7.5981      7.9035      8.2899    
  8.7405      9.2352      9.7516      10.261      10.708      11.032      11.187      11.149      10.919      10.527    
  10.820      10.493      10.149      9.8473      9.6423      9.5697      9.6423      9.8473      10.149      10.493    
  10.820      11.070      11.196      11.169      10.982      10.653      10.219      9.7273      9.2265      8.7405    
  8.2900      7.8937      7.5680      7.3258      7.1766      7.1263      7.1766      7.3258      7.5680      7.8937    
  8.2900      8.7405      9.2265      9.7274      10.219      10.653      10.982      11.169      11.196      11.070    
  11.164      11.037      10.854      10.662      10.504      10.416      10.416      10.504      10.662      10.854    
  11.037      11.164      11.197      11.110      10.895      10.564      10.145      9.6785      9.2004      8.7313    
  8.2899      7.8937      7.5579      7.2949      7.1143      7.0224      7.0224      7.1143      7.2949      7.5579    
  7.8937      8.2899      8.7313      9.2004      9.6785      10.145      10.564      10.895      11.110      11.197    
  11.124      11.163      11.130      11.055      10.971      10.907      10.883      10.907      10.971      11.055    
  11.130      11.163      11.124      10.992      10.759      10.434      10.038      9.6042      9.1566      8.7128    
  8.2898      7.9035      7.5680      7.2949      7.0935      6.9700      6.9285      6.9700      7.0935      7.2949    
  7.5680      7.9035      8.2898      8.7128      9.1566      9.6042      10.038      10.434      10.759      10.992    
  10.800      10.958      11.044      11.074      11.068      11.050      11.035      11.035      11.050      11.068    
  11.074      11.044      10.958      10.800      10.565      10.258      9.8967      9.5038      9.0948      8.6849    
  8.2895      7.9230      7.5981      7.3258      7.1143      6.9700      6.8969      6.8969      6.9700      7.1143    
  7.3258      7.5981      7.9230      8.2895      8.6849      9.0948      9.5037      9.8967      10.258      10.565    
  10.311      10.532      10.693      10.800      10.861      10.892      10.904      10.906      10.904      10.892    
  10.861      10.800      10.693      10.532      10.311      10.037      9.7213      9.3768      9.0146      8.6475    
  8.2890      7.9521      7.6482      7.3871      7.1766      7.0224      6.9285      6.8969      6.9285      7.0224    
  7.1766      7.3871      7.6482      7.9521      8.2890      8.6475      9.0146      9.3768      9.7213      10.037    
  9.7750      10.003      10.192      10.338      10.442      10.510      10.549      10.567      10.567      10.549    
  10.510      10.442      10.338      10.192      10.003      9.7750      9.5132      9.2239      8.9162      8.6004    
  8.2880      7.9903      7.7174      7.4781      7.2793      7.1263      7.0224      6.9700      6.9700      7.0224    
  7.1263      7.2793      7.4781      7.7174      7.9903      8.2880      8.6004      8.9161      9.2239      9.5132    
  9.2752      9.4794      9.6549      9.7998      9.9140      9.9983      10.055      10.087      10.097      10.087    
  10.055      9.9983      9.9140      9.7998      9.6549      9.4794      9.2752      9.0467      8.8001      8.5434    
  8.2858      8.0366      7.8045      7.5971      7.4205      7.2793      7.1766      7.1143      7.0935      7.1143    
  7.1766      7.2793      7.4205      7.5971      7.8045      8.0366      8.2858      8.5434      8.8001      9.0467    
  8.8484      9.0127      9.1570      9.2790      9.3780      9.4546      9.5100      9.5458      9.5633      9.5633    
  9.5458      9.5100      9.4546      9.3780      9.2790      9.1570      9.0127      8.8484      8.6679      8.4768    
  8.2816      8.0895      7.9073      7.7415      7.5971      7.4781      7.3871      7.3258      7.2949      7.2949    
  7.3258      7.3871      7.4781      7.5971      7.7415      7.9073      8.0895      8.2816      8.4768      8.6679    
  8.5223      8.6338      8.7328      8.8175      8.8874      8.9426      8.9840      9.0126      9.0293      9.0348    
  9.0293      9.0126      8.9840      8.9426      8.8874      8.8175      8.7328      8.6338      8.5223      8.4012    
  8.2745      8.1467      8.0228      7.9073      7.8045      7.7174      7.6482      7.5981      7.5680      7.5579    
  7.5680      7.5981      7.6482      7.7174      7.8045      7.9073      8.0228      8.1467      8.2745      8.4012    
  8.3180      8.3670      8.4092      8.4441      8.4719      8.4932      8.5088      8.5197      8.5265      8.5298    
  8.5298      8.5265      8.5197      8.5088      8.4932      8.4719      8.4441      8.4092      8.3670      8.3180    
  8.2636      8.2056      8.1467      8.0895      8.0366      7.9903      7.9521      7.9230      7.9035      7.8937    
  7.8937      7.9035      7.9230      7.9521      7.9903      8.0366      8.0895      8.1467      8.2057      8.2636    
  8.2485      8.2293      8.2066      8.1818      8.1564      8.1320      8.1102      8.0922      8.0788      8.0706    
  8.0679      8.0706      8.0788      8.0922      8.1102      8.1320      8.1564      8.1818      8.2066      8.2293    
  8.2485      8.2636      8.2745      8.2816      8.2858      8.2880      8.2890      8.2895      8.2898      8.2899    
  8.2900      8.2899      8.2898      8.2895      8.2890      8.2880      8.2858      8.2816      8.2745      8.2636    
  8.3180      8.2293      8.1377      8.0466      7.9595      7.8795      7.8095      7.7516      7.7073      7.6774    
  7.6624      7.6624      7.6774      7.7073      7.7516      7.8095      7.8795      7.9595      8.0466      8.1377    
  8.2293      8.3180      8.4012      8.4768      8.5434      8.6004      8.6475      8.6849      8.7128      8.7313    
  8.7405      8.7405      8.7313      8.7128      8.6849      8.6475      8.6004      8.5434      8.4768      8.4012    
  8.5223      8.3670      8.2066      8.0466      7.8926      7.7497      7.6226      7.5149      7.4292      7.3672    
  7.3297      7.3171      7.3297      7.3672      7.4292      7.5149      7.6226      7.7497      7.8926      8.0466    
  8.2066      8.3670      8.5223      8.6679      8.8001      8.9162      9.0146      9.0948      9.1566      9.2004    
  9.2265      9.2352      9.2265      9.2004      9.1566      9.0948      9.0146      8.9161      8.8001      8.6679    
  8.8484      8.6338      8.4092      8.1818      7.9595      7.7497      7.5592      7.3936      7.2572      7.1529    
  7.0826      7.0472      7.0472      7.0826      7.1529      7.2572      7.3936      7.5592      7.7497      7.9595    
  8.1818      8.4092      8.6338      8.8484      9.0467      9.2239      9.3768      9.5038      9.6042      9.6785    
  9.7273      9.7516      9.7516      9.7273      9.6785      9.6042      9.5037      9.3768      9.2239      9.0467    
  9.2752      9.0127      8.7328      8.4441      8.1564      7.8795      7.6226      7.3936      7.1990      7.0436    
  6.9306      6.8621      6.8392      6.8621      6.9306      7.0436      7.1990      7.3936      7.6226      7.8795    
  8.1564      8.4441      8.7328      9.0127      9.2752      9.5132      9.7213      9.8967      10.038      10.145    
  10.219      10.261      10.275      10.261      10.219      10.145      10.038      9.8967      9.7213      9.5132    
  9.7750      9.4794      9.1570      8.8175      8.4719      8.1320      7.8095      7.5149      7.2572      7.0436    
  6.8793      6.7680      6.7118      6.7118      6.7680      6.8793      7.0436      7.2572      7.5149      7.8095    
  8.1320      8.4719      8.8175      9.1570      9.4794      9.7750      10.037      10.258      10.434      10.564    
  10.653      10.708      10.733      10.733      10.708      10.653      10.564      10.434      10.258      10.037    
  10.311      10.003      9.6549      9.2790      8.8874      8.4932      8.1102      7.7516      7.4292      7.1529    
  6.9306      6.7680      6.6690      6.6357      6.6690      6.7680      6.9306      7.1529      7.4292      7.7516    
  8.1102      8.4932      8.8874      9.2790      9.6549      10.003      10.311      10.565      10.759      10.895    
  10.982      11.032      11.056      11.063      11.056      11.032      10.982      10.895      10.759      10.565    
  10.800      10.532      10.192      9.7998      9.3780      8.9426      8.5088      8.0922      7.7073      7.3672    
  7.0826      6.8621      6.7118      6.6357      6.6357      6.7118      6.8621      7.0826      7.3672      7.7073    
  8.0922      8.5088      8.9426      9.3780      9.7998      10.192      10.532      10.800      10.992      11.110    
  11.169      11.187      11.186      11.180      11.180      11.186      11.187      11.169      11.110      10.992    
  11.124      10.958      10.693      10.338      9.9140      9.4546      8.9840      8.5197      8.0788      7.6774    
  7.3297      7.0472      6.8392      6.7118      6.6690      6.7118      6.8392      7.0472      7.3297      7.6774    
  8.0788      8.5197      8.9840      9.4546      9.9140      10.338      10.693      10.958      11.124      11.197    
  11.196      11.149      11.087      11.037      11.018      11.037      11.087      11.149      11.196      11.197    
  11.164      11.163      11.044      10.800      10.442      9.9983      9.5100      9.0126      8.5265      8.0706    
  7.6624      7.3171      7.0472      6.8621      6.7680      6.7680      6.8621      7.0472      7.3171      7.6624    
  8.0706      8.5265      9.0126      9.5100      9.9983      10.442      10.800      11.044      11.163      11.164    
  11.070      10.919      10.754      10.616      10.538      10.538      10.616      10.754      10.919      11.070    
  10.820      11.037      11.130      11.074      10.861      10.510      10.055      9.5458      9.0293      8.5298    
  8.0679      7.6624      7.3297      7.0826      6.9306      6.8793      6.9306      7.0826      7.3297      7.6624    
  8.0679      8.5298      9.0293      9.5458      10.055      10.510      10.861      11.074      11.130      11.037    
  10.820      10.527      10.212      9.9355      9.7464      9.6794      9.7464      9.9355      10.212      10.527    
  10.025      10.493      10.854      11.055      11.068      10.892      10.549      10.087      9.5633      9.0348    
  8.5298      8.0706      7.6774      7.3672      7.1529      7.0436      7.0436      7.1529      7.3672      7.6774    
  8.0706      8.5298      9.0348      9.5633      10.087      10.549      10.892      11.068      11.055      10.854    
  10.493      10.025      9.5195      9.0515      8.6928      8.4985      8.4985      8.6928      9.0515      9.5195    
  8.7571      9.4871      10.149      10.662      10.971      11.050      10.904      10.567      10.097      9.5633    
  9.0293      8.5265      8.0788      7.7073      7.4292      7.2572      7.1990      7.2572      7.4292      7.7073    
  8.0788      8.5265      9.0293      9.5633      10.097      10.567      10.904      11.050      10.971      10.662    
  10.149      9.4871      8.7571      8.0522      7.4660      7.0785      6.9430      7.0785      7.4660      8.0522    
  7.0485      8.0218      8.9909      9.8473      10.504      10.907      11.035      10.906      10.567      10.087    
  9.5458      9.0126      8.5197      8.0922      7.7516      7.5149      7.3936      7.3936      7.5149      7.7516    
  8.0922      8.5197      9.0126      9.5458      10.087      10.567      10.906      11.035      10.907      10.504    
  9.8473      8.9909      8.0218      7.0485      6.1868      5.5432      5.1993      5.1993      5.5432      6.1868    
  4.9930      6.1595      7.4106      8.6111      9.6423      10.416      10.883      11.035      10.904      10.549    
  10.055      9.5100      8.9840      8.5088      8.1102      7.8095      7.6226      7.5592      7.6226      7.8095    
  8.1102      8.5088      8.9840      9.5100      10.055      10.549      10.904      11.035      10.883      10.416    
  9.6423      8.6111      7.4106      6.1595      4.9930      4.0440      3.4246      3.2094      3.4246      4.0440    
  2.7403      4.0212      5.4954      7.0065      8.4055      9.5697      10.416      10.907      11.050      10.892    
  10.510      9.9983      9.4546      8.9426      8.4932      8.1320      7.8795      7.7497      7.7497      7.8795    
  8.1320      8.4932      8.9426      9.4546      9.9983      10.510      10.892      11.050      10.907      10.416    
  9.5697      8.4055      7.0065      5.4954      4.0212      2.7403      1.7949      1.2932      1.2932      1.7949    
 0.48254      1.7775      3.3865      5.1404      6.8652      8.4055      9.6423      10.504      10.971      11.068    
  10.861      10.442      9.9140      9.3780      8.8874      8.4719      8.1564      7.9595      7.8926      7.9595    
  8.1564      8.4719      8.8874      9.3780      9.9140      10.442      10.861      11.068      10.971      10.504    
  9.6423      8.4055      6.8652      5.1404      3.3865      1.7775     0.48254     -.35703     -.64777     -.35703    
 -1.5678     -.36874      1.2663      3.1660      5.1404      7.0065      8.6111      9.8473      10.662      11.055    
  11.074      10.800      10.338      9.7998      9.2790      8.8175      8.4441      8.1818      8.0466      8.0466    
  8.1818      8.4441      8.8175      9.2790      9.7998      10.338      10.800      11.074      11.055      10.662    
  9.8473      8.6111      7.0065      5.1404      3.1660      1.2663     -.36874     -1.5678     -2.2019     -2.2019    
 -3.2062     -2.2083     -.66361      1.2663      3.3865      5.4954      7.4106      8.9909      10.149      10.854    
  11.130      11.044      10.693      10.192      9.6549      9.1570      8.7328      8.4092      8.2066      8.1377    
  8.2066      8.4092      8.7328      9.1570      9.6549      10.192      10.693      11.044      11.130      10.854    
  10.149      8.9909      7.4106      5.4954      3.3865      1.2663     -.66361     -2.2083     -3.2062     -3.5512    
 -4.2636     -3.5535     -2.2083     -.36874      1.7775      4.0212      6.1595      8.0218      9.4871      10.493    
  11.037      11.163      10.958      10.532      10.003      9.4794      9.0127      8.6338      8.3670      8.2293    
  8.2293      8.3670      8.6338      9.0127      9.4794      10.003      10.532      10.958      11.163      11.037    
  10.493      9.4871      8.0218      6.1595      4.0212      1.7775     -.36874     -2.2083     -3.5535     -4.2636    
 -4.2435     -3.8853     -2.8487     -1.2431     0.76511      2.9747      5.1771      7.1833      8.8469      10.076    
  10.839      11.159      11.103      10.769      10.276      9.7393      9.2403      8.8144      8.4893      8.2856    
  8.2163      8.2856      8.4893      8.8144      9.2403      9.7393      10.276      10.769      11.103      11.159    
  10.839      10.076      8.8469      7.1834      5.1771      2.9747     0.76511     -1.2431     -2.8487     -3.8853    
 -3.8853     -3.8853     -3.1870     -1.8647     -.57542E-01  2.0491      4.2487      6.3417      8.1601      9.5856    
  10.558      11.074      11.181      10.963      10.530      9.9993      9.4762      9.0107      8.6329      8.3670    
  8.2298      8.2298      8.3670      8.6329      9.0107      9.4762      9.9993      10.530      10.963      11.181    
  11.074      10.558      9.5856      8.1601      6.3417      4.2487      2.0491     -.57541E-01 -1.8647     -3.1870    
 -2.8487     -3.1890     -2.8487     -1.8647     -.34248      1.5576      3.6425      5.7126      7.5883      9.1307    
  10.255      10.931      11.185      11.084      10.724      10.220      9.6827      9.1861      8.7633      8.4409    
  8.2393      8.1707      8.2393      8.4410      8.7633      9.1861      9.6827      10.220      10.724      11.084    
  11.185      10.931      10.255      9.1307      7.5883      5.7126      3.6425      1.5576     -.34248     -1.8647    
 -1.2431     -1.8704     -1.8704     -1.2431     -.57543E-01  1.5576      3.4319      5.3764      7.2099      8.7814    
  9.9863      10.773      11.144      11.146      10.862      10.395      9.8568      9.3376      8.8778      8.5062    
  8.2452      8.1107      8.1107      8.2452      8.5062      8.8779      9.3376      9.8568      10.395      10.862    
  11.146      11.144      10.773      9.9863      8.7814      7.2099      5.3764      3.4319      1.5576     -.57541E-01
 0.76511     -.68032E-01 -.35666     -.68032E-01 0.76510      2.0491      3.6425      5.3764      7.0776      8.5920    
  9.8028      10.640      11.086      11.168      10.950      10.525      9.9972      9.4633      8.9751      8.5620    
  8.2484      8.0528      7.9863      8.0528      8.2484      8.5620      8.9751      9.4633      9.9972      10.525    
  10.950      11.168      11.086      10.640      9.8028      8.5920      7.0776      5.3764      3.6425      2.0491    
  2.9747      2.0334      1.5335      1.5335      2.0334      2.9747      4.2487      5.7126      7.2099      8.5920    
  9.7376      10.565      11.039      11.168      11.001      10.615      10.104      9.5628      9.0543      8.6082    
  8.2498      7.9993      7.8705      7.8705      7.9993      8.2498      8.6082      9.0543      9.5628      10.104    
  10.615      11.001      11.168      11.039      10.565      9.7376      8.5920      7.2099      5.7126      4.2487    
  5.1771      4.2282      3.6083      3.3929      3.6083      4.2282      5.1771      6.3417      7.5883      8.7814    
  9.8028      10.565      11.021      11.164      11.026      10.670      10.177      9.6365      9.1154      8.6449    
  8.2502      7.9525      7.7675      7.7047      7.7675      7.9525      8.2502      8.6449      9.1154      9.6365    
  10.177      10.670      11.026      11.164      11.021      10.565      9.8028      8.7814      7.5883      6.3417    
  7.1834      6.3172      5.6696      5.3234      5.3234      5.6696      6.3172      7.1834      8.1601      9.1307    
  9.9863      10.640      11.039      11.164      11.034      10.696      10.219      9.6849      9.1587      8.6723    
  8.2503      7.9140      7.6803      7.5605      7.5605      7.6803      7.9140      8.2503      8.6723      9.1587    
  9.6849      10.219      10.696      11.034      11.164      11.039      10.640      9.9863      9.1307      8.1601    
  8.8469      8.1327      7.5383      7.1451      7.0075      7.1451      7.5383      8.1327      8.8469      9.5856    
  10.255      10.773      11.086      11.168      11.026      10.696      10.233      9.7090      9.1845      8.6904    
  8.2502      7.8847      7.6110      7.4417      7.3844      7.4417      7.6110      7.8847      8.2502      8.6904    
  9.1845      9.7090      10.233      10.696      11.026      11.168      11.086      10.773      10.255      9.5856    
  10.076      9.5565      9.0760      8.7078      8.5083      8.5083      8.7078      9.0760      9.5565      10.076    
  10.558      10.931      11.144      11.168      11.001      10.670      10.219      9.7090      9.1931      8.6995    
  8.2502      7.8651      7.5610      7.3509      7.2436      7.2436      7.3509      7.5610      7.8651      8.2502    
  8.6995      9.1931      9.7090      10.219      10.670      11.001      11.168      11.144      10.931      10.558    
  10.839      10.528      10.197      9.9068      9.7089      9.6388      9.7089      9.9068      10.197      10.528    
  10.839      11.074      11.185      11.146      10.950      10.615      10.177      9.6849      9.1845      8.6995    
  8.2502      7.8553      7.5309      7.2898      7.1413      7.0912      7.1413      7.2898      7.5309      7.8553    
  8.2502      8.6995      9.1845      9.6849      10.177      10.615      10.950      11.146      11.185      11.074    
  11.159      11.044      10.873      10.690      10.540      10.455      10.455      10.540      10.690      10.873    
  11.044      11.159      11.181      11.084      10.862      10.525      10.104      9.6365      9.1587      8.6904    
  8.2502      7.8553      7.5208      7.2590      7.0793      6.9878      6.9878      7.0793      7.2590      7.5208    
  7.8553      8.2502      8.6904      9.1587      9.6365      10.104      10.525      10.862      11.084      11.181    
  11.103      11.150      11.126      11.060      10.982      10.922      10.899      10.922      10.982      11.060    
  11.126      11.150      11.103      10.963      10.724      10.395      9.9972      9.5628      9.1154      8.6723    
  8.2502      7.8651      7.5309      7.2590      7.0585      6.9357      6.8943      6.9357      7.0585      7.2590    
  7.5309      7.8651      8.2502      8.6723      9.1154      9.5628      9.9972      10.395      10.724      10.963    
  10.769      10.933      11.025      11.061      11.061      11.046      11.034      11.034      11.046      11.061    
  11.061      11.025      10.933      10.769      10.530      10.220      9.8568      9.4633      9.0543      8.6449    
  8.2503      7.8847      7.5610      7.2898      7.0793      6.9357      6.8629      6.8629      6.9357      7.0793    
  7.2898      7.5610      7.8847      8.2503      8.6449      9.0543      9.4633      9.8568      10.220      10.530    
  10.276      10.499      10.665      10.776      10.842      10.875      10.889      10.893      10.889      10.875    
  10.842      10.776      10.665      10.499      10.276      9.9993      9.6827      9.3376      8.9751      8.6082    
  8.2502      7.9140      7.6110      7.3509      7.1413      6.9878      6.8943      6.8629      6.8943      6.9878    
  7.1413      7.3509      7.6110      7.9140      8.2502      8.6082      8.9751      9.3376      9.6827      9.9993    
  9.7393      9.9690      10.160      10.308      10.415      10.486      10.527      10.546      10.546      10.527    
  10.486      10.415      10.308      10.160      9.9690      9.7393      9.4762      9.1861      8.8779      8.5620    
  8.2498      7.9525      7.6803      7.4417      7.2436      7.0912      6.9878      6.9357      6.9357      6.9878    
  7.0912      7.2436      7.4417      7.6803      7.9525      8.2498      8.5620      8.8779      9.1861      9.4762    
  9.2403      9.4458      9.6229      9.7695      9.8855      9.9714      10.029      10.062      10.073      10.062    
  10.029      9.9714      9.8855      9.7695      9.6229      9.4458      9.2403      9.0107      8.7633      8.5062    
  8.2484      7.9993      7.7675      7.5605      7.3844      7.2436      7.1413      7.0793      7.0585      7.0793    
  7.1413      7.2436      7.3844      7.5605      7.7675      7.9993      8.2484      8.5062      8.7633      9.0107    
  8.8144      8.9801      9.1259      9.2494      9.3500      9.4281      9.4847      9.5214      9.5394      9.5394    
  9.5214      9.4847      9.4281      9.3500      9.2495      9.1259      8.9801      8.8144      8.6329      8.4410    
  8.2452      8.0527      7.8705      7.7047      7.5605      7.4417      7.3509      7.2898      7.2590      7.2590    
  7.2898      7.3509      7.4417      7.5605      7.7047      7.8705      8.0528      8.2452      8.4410      8.6329    
  8.4893      8.6021      8.7026      8.7889      8.8604      8.9172      8.9599      8.9894      9.0068      9.0125    
  9.0068      8.9894      8.9599      8.9172      8.8604      8.7889      8.7026      8.6021      8.4893      8.3670    
  8.2393      8.1107      7.9863      7.8705      7.7675      7.6803      7.6110      7.5610      7.5309      7.5208    
  7.5309      7.5610      7.6110      7.6803      7.7675      7.8705      7.9863      8.1107      8.2393      8.3670    
  8.2856      8.3361      8.3800      8.4166      8.4461      8.4690      8.4860      8.4981      8.5057      8.5094    
  8.5094      8.5057      8.4981      8.4861      8.4690      8.4461      8.4166      8.3800      8.3361      8.2856    
  8.2298      8.1707      8.1107      8.0527      7.9993      7.9525      7.9140      7.8847      7.8651      7.8553    
  7.8553      7.8651      7.8847      7.9140      7.9525      7.9993      8.0528      8.1107      8.1707      8.2298    
  8.2163      8.1989      8.1781      8.1552      8.1316      8.1090      8.0888      8.0721      8.0597      8.0522    
  8.0496      8.0522      8.0597      8.0721      8.0888      8.1090      8.1316      8.1552      8.1781      8.1989    
  8.2163      8.2298      8.2393      8.2452      8.2484      8.2498      8.2502      8.2503      8.2502      8.2502    
  8.2502      8.2502      8.2502      8.2503      8.2502      8.2498      8.2484      8.2452      8.2393      8.2298    
  8.2856      8.1989      8.1094      8.0205      7.9354      7.8575      7.7893      7.7329      7.6899      7.6608    