Si beta-tin                             
   2.70000000000000     
     1.009823    0.000000    0.000000
    -0.504912    0.874533    0.000000
     0.000000    0.000000    1.601374
    S
     2
Direct
 -0.000000 -0.000000 -0.000000
  0.333333  0.666667  0.500000
 
   40   40   64
 -.46292062892E+01 -.42571619965E+01 -.31814267741E+01 -.15179111934E+01 0.55746199408E+00
 0.28329372647E+01 0.50902329027E+01 0.71335760412E+01 0.88128379771E+01 0.10037038033E+02
 0.10777520050E+02 0.11062618303E+02 0.10966604356E+02 0.10595361771E+02 0.10070517514E+02
 0.95121036729E+01 0.89962085307E+01 0.85575580947E+01 0.82236627989E+01 0.80149741839E+01
 0.79440100309E+01 0.80149740996E+01 0.82236626478E+01 0.85575579073E+01 0.89962083427E+01
 0.95121035166E+01 0.10070517411E+02 0.10595361729E+02 0.10966604368E+02 0.11062618353E+02
 0.10777520118E+02 0.10037038100E+02 0.88128380303E+01 0.71335760753E+01 0.50902329189E+01
 0.28329372683E+01 0.55746199114E+00 -.15179111981E+01 -.31814267779E+01 -.42571619985E+01
 -.42571619985E+01 -.42571606445E+01 -.35329306361E+01 -.21632171882E+01 -.29505583348E+00
 0.18762719351E+01 0.41343649968E+01 0.62713296202E+01 0.81141878254E+01 0.95432310797E+01
 0.10500120004E+02 0.10986450227E+02 0.11055261045E+02 0.10798177543E+02 0.10330236206E+02
 0.97738786520E+01 0.92322623657E+01 0.87521901203E+01 0.83639191952E+01 0.80913634085E+01
 0.79509309963E+01 0.79509310556E+01 0.80913635180E+01 0.83639191845E+01 0.87521898057E+01
 0.92322616512E+01 0.97738775937E+01 0.10330235005E+02 0.10798176462E+02 0.11055260278E+02
 0.10986449775E+02 0.10500119611E+02 0.95432302767E+01 0.81141860684E+01 0.62713264921E+01
 0.41343604014E+01 0.18762662108E+01 -.29506193106E+00 -.21632226414E+01 -.35329344188E+01
 -.31814267779E+01 -.35337892709E+01 -.31814222750E+01 -.21632145657E+01 -.59061410254E+00
 0.13675941790E+01 0.35088229971E+01 0.56249369654E+01 0.75300110307E+01 0.90822966116E+01
 0.10196957362E+02 0.10848978657E+02 0.11067967316E+02 0.10927447007E+02 0.10530948319E+02
 0.99965674140E+01 0.94391086681E+01 0.89265398882E+01 0.84917190207E+01 0.81612570219E+01
 0.79549158060E+01 0.78847828451E+01 0.79549160058E+01 0.81612572139E+01 0.84917188986E+01
 0.89265392141E+01 0.94391074169E+01 0.99965658217E+01 0.10530946799E+02 0.10927445958E+02
 0.11067966892E+02 0.10848978605E+02 0.10196957003E+02 0.90822950100E+01 0.75300072987E+01
 0.56249306216E+01 0.35088142430E+01 0.13675839851E+01 -.59062415216E+00 -.21632226414E+01
 -.15179111981E+01 -.21656782086E+01 -.21656755846E+01 -.15179038928E+01 -.29505148455E+00
 0.13675954889E+01 0.32912210171E+01 0.52788237865E+01 0.71424298224E+01 0.87270142412E+01
 0.99269519757E+01 0.10693179595E+02 0.11031741972E+02 0.10995865834E+02 0.10673893023E+02
 0.10174930607E+02 0.96135590406E+01 0.90772447317E+01 0.86043486069E+01 0.82232764796E+01
 0.79564197887E+01 0.78191130986E+01 0.78191132273E+01 0.79564200589E+01 0.82232766082E+01
 0.86043483059E+01 0.90772438892E+01 0.96135578286E+01 0.10174929451E+02 0.10673892426E+02
 0.10995866117E+02 0.11031743036E+02 0.10693180815E+02 0.99269522978E+01 0.87270124809E+01
 0.71424250777E+01 0.52788158306E+01 0.32912105222E+01 0.13675839851E+01 -.29506193106E+00
 0.55746199114E+00 -.29964005046E+00 -.59680033417E+00 -.29963570049E+00 0.55746966832E+00
 0.18762754660E+01 0.35088230970E+01 0.52788226120E+01 0.70067369127E+01 0.85339312953E+01
 0.97414971894E+01 0.10561036457E+02 0.10976995879E+02 0.11021939116E+02 0.10766839676E+02
 0.10308316396E+02 0.97543648874E+01 0.92024620107E+01 0.87001349811E+01 0.82766462100E+01
 0.79561733652E+01 0.77566070561E+01 0.76888647320E+01 0.77566073778E+01 0.79561737978E+01
 0.82766464526E+01 0.87001348268E+01 0.92024615030E+01 0.97543643640E+01 0.10308316382E+02
 0.10766840653E+02 0.11021941254E+02 0.10976998843E+02 0.10561039389E+02 0.97414989011E+01
 0.85339306279E+01 0.70067331556E+01 0.52788158306E+01 0.35088142430E+01 0.18762662108E+01
 0.28329372683E+01 0.18693473049E+01 0.13569461739E+01 0.13569474824E+01 0.18693508321E+01
 0.28329419469E+01 0.41343648335E+01 0.56249335130E+01 0.71424256235E+01 0.85339287226E+01
 0.96755501599E+01 0.10485796722E+02 0.10931298352E+02 0.11025384353E+02 0.10821093522E+02
 0.10400415598E+02 0.98613590052E+01 0.93016087170E+01 0.87782849822E+01 0.83210464718E+01
 0.79549787117E+01 0.76997398372E+01 0.75687374148E+01 0.75687377282E+01 0.76997406385E+01
 0.79549796540E+01 0.83210471785E+01 0.87782852538E+01 0.93016086705E+01 0.98613590755E+01
 0.10400416385E+02 0.10821095536E+02 0.11025387755E+02 0.10931302796E+02 0.10485801382E+02
 0.96755539464E+01 0.85339306279E+01 0.71424250777E+01 0.56249306216E+01 0.41343604014E+01
 0.50902329189E+01 0.41252088527E+01 0.34936073029E+01 0.32738864844E+01 0.34936073949E+01
 0.41252086752E+01 0.50902319044E+01 0.62713241170E+01 0.75300033312E+01 0.87270071284E+01
 0.97414927968E+01 0.10485795412E+02 0.10913786266E+02 0.11022513106E+02 0.10848047835E+02
 0.10457023608E+02 0.99353875881E+01 0.93749661910E+01 0.88386365753E+01 0.83564323380E+01
 0.79535210776E+01 0.76505170510E+01 0.74625732556E+01 0.73988983257E+01 0.74625742035E+01
 0.76505185936E+01 0.79535226572E+01 0.83564334312E+01 0.88386369265E+01 0.93749659468E+01
 0.99353872760E+01 0.10457023961E+02 0.10848049528E+02 0.11022516494E+02 0.10913791233E+02
 0.10485801382E+02 0.97414989011E+01 0.87270124809E+01 0.75300072987E+01 0.62713264921E+01
 0.71335760753E+01 0.62603212267E+01 0.56056427969E+01 0.52550804431E+01 0.52550792620E+01
 0.56056393253E+01 0.62603156940E+01 0.71335689002E+01 0.81141778771E+01 0.90822866070E+01
 0.99269445698E+01 0.10561033151E+02 0.10931298615E+02 0.11022514547E+02 0.10856021852E+02
 0.10483671599E+02 0.99784976302E+01 0.94232396741E+01 0.88813886569E+01 0.83828748637E+01
 0.79522512073E+01 0.76103314995E+01 0.73732610877E+01 0.72519768243E+01 0.72519774037E+01
 0.73732626203E+01 0.76103334398E+01 0.79522528631E+01 0.83828756434E+01 0.88813882886E+01
 0.94232383226E+01 0.99784958750E+01 0.10483670281E+02 0.10856021839E+02 0.11022516494E+02
 0.10931302796E+02 0.10561039389E+02 0.99269522978E+01 0.90822950100E+01 0.81141860684E+01
 0.88128380303E+01 0.81018532569E+01 0.75075395513E+01 0.71132872963E+01 0.69752665739E+01
 0.71132830817E+01 0.75075318208E+01 0.81018432643E+01 0.88128273308E+01 0.95432204222E+01
 0.10196949255E+02 0.10693175933E+02 0.10976996998E+02 0.11025388564E+02 0.10848052198E+02
 0.10483673823E+02 0.99926132777E+01 0.94471549302E+01 0.89068616747E+01 0.84004583957E+01
 0.79513661690E+01 0.75799648471E+01 0.73026982028E+01 0.71315246771E+01 0.70736640720E+01
 0.71315254540E+01 0.73026994945E+01 0.75799661918E+01 0.79513670198E+01 0.84004582646E+01
 0.89068602783E+01 0.94471523026E+01 0.99926098222E+01 0.10483670281E+02 0.10848049528E+02
 0.11025387755E+02 0.10976998843E+02 0.10693180815E+02 0.10196957003E+02 0.95432302767E+01
 0.10037038100E+02 0.95300937687E+01 0.90576849016E+01 0.86938712541E+01 0.84962349306E+01
 0.84962323516E+01 0.86938641218E+01 0.90576748625E+01 0.95300830602E+01 0.10037028956E+02
 0.10500113703E+02 0.10848976680E+02 0.11031744842E+02 0.11021945748E+02 0.10821101283E+02
 0.10457029579E+02 0.99785003849E+01 0.94471552911E+01 0.89153191158E+01 0.84092380145E+01
 0.79508777720E+01 0.75597186566E+01 0.72519274608E+01 0.70398433917E+01 0.69317350687E+01
 0.69317350257E+01 0.70398433054E+01 0.72519274145E+01 0.75597186645E+01 0.79508776708E+01
 0.84092374286E+01 0.89153175428E+01 0.94471523026E+01 0.99784958750E+01 0.10457023961E+02
 0.10821095536E+02 0.11021941254E+02 0.11031743036E+02 0.10848978605E+02 0.10500119611E+02
 0.10777520118E+02 0.10486578136E+02 0.10171106754E+02 0.98911946431E+01 0.96992988421E+01
 0.96311165929E+01 0.96992944469E+01 0.98911872283E+01 0.10171098625E+02 0.10486571793E+02
 0.10777517476E+02 0.10986451606E+02 0.11067972664E+02 0.10995874262E+02 0.10766849149E+02
 0.10400423435E+02 0.99353918380E+01 0.94232403273E+01 0.89068604775E+01 0.84092369720E+01
 0.79507253740E+01 0.75496192295E+01 0.72213901732E+01 0.69782338798E+01 0.68288693809E+01
 0.67785044595E+01 0.68288682574E+01 0.69782321401E+01 0.72213885798E+01 0.75496184072E+01
 0.79507254519E+01 0.84092374286E+01 0.89068602783E+01 0.94232383226E+01 0.99353872760E+01
 0.10400416385E+02 0.10766840653E+02 0.10995866117E+02 0.11067966892E+02 0.10986449775E+02
 0.11062618353E+02 0.10972717612E+02 0.10822477386E+02 0.10655858896E+02 0.10515829148E+02
 0.10436426338E+02 0.10436425035E+02 0.10515825860E+02 0.10655855255E+02 0.10822475419E+02
 0.10972718977E+02 0.11062623702E+02 0.11055268986E+02 0.10927456315E+02 0.10673902214E+02
 0.10308323626E+02 0.98613626873E+01 0.93749660341E+01 0.88813860261E+01 0.84004553901E+01
 0.79508758082E+01 0.75496184785E+01 0.72112062616E+01 0.69473159365E+01 0.67666352151E+01
 0.66748808790E+01 0.66748798970E+01 0.67666327114E+01 0.69473130472E+01 0.72112043184E+01
 0.75496184072E+01 0.79508776708E+01 0.84004582646E+01 0.88813882886E+01 0.93749659468E+01
 0.98613590755E+01 0.10308316382E+02 0.10673892426E+02 0.10927445958E+02 0.11055260278E+02
 0.10966604368E+02 0.11041376989E+02 0.11041047716E+02 0.10993422938E+02 0.10929754103E+02
 0.10878357692E+02 0.10858884923E+02 0.10878357985E+02 0.10929755276E+02 0.10993425871E+02
 0.11041053121E+02 0.11041384962E+02 0.10966614161E+02 0.10798186579E+02 0.10530955400E+02
 0.10174934928E+02 0.97543658823E+01 0.93016064604E+01 0.88386322212E+01 0.83828702691E+01
 0.79513627835E+01 0.75597167599E+01 0.72213892262E+01 0.69473154897E+01 0.67458131364E+01
 0.66226596177E+01 0.65812372285E+01 0.66226577424E+01 0.67458102701E+01 0.69473130472E+01
 0.72213885798E+01 0.75597186645E+01 0.79513670198E+01 0.83828756434E+01 0.88386369265E+01
 0.93016086705E+01 0.97543643640E+01 0.10174929451E+02 0.10530946799E+02 0.10798176462E+02
 0.10595361729E+02 0.10784064251E+02 0.10900058313E+02 0.10956659350E+02 0.10973057453E+02
 0.10969620448E+02 0.10963168594E+02 0.10963170055E+02 0.10969624716E+02 0.10973064172E+02
 0.10956667882E+02 0.10900067726E+02 0.10784073371E+02 0.10595369298E+02 0.10330239916E+02
 0.99965673765E+01 0.96135559430E+01 0.92024567730E+01 0.87782788425E+01 0.83564267909E+01
 0.79522473621E+01 0.75799627583E+01 0.72519263084E+01 0.69782329298E+01 0.67666344645E+01
 0.66226593717E+01 0.65498220647E+01 0.65498214141E+01 0.66226577424E+01 0.67666327114E+01
 0.69782321401E+01 0.72519274145E+01 0.75799661918E+01 0.79522528631E+01 0.83564334312E+01
 0.87782852538E+01 0.92024615030E+01 0.96135578286E+01 0.99965658217E+01 0.10330235005E+02
 0.10070517411E+02 0.10315771522E+02 0.10502889249E+02 0.10633611730E+02 0.10716261625E+02
 0.10762686591E+02 0.10784738136E+02 0.10791041991E+02 0.10784742535E+02 0.10762694423E+02
 0.10716271200E+02 0.10633621047E+02 0.10502896467E+02 0.10315775362E+02 0.10070517391E+02
 0.97738740444E+01 0.94391013052E+01 0.90772365100E+01 0.87001274689E+01 0.83210408511E+01
 0.79535179387E+01 0.76103304616E+01 0.73026980337E+01 0.70398429333E+01 0.68288684890E+01
 0.66748803055E+01 0.65812375102E+01 0.65498220647E+01 0.65812372285E+01 0.66748798970E+01
 0.68288682574E+01 0.70398433054E+01 0.73026994945E+01 0.76103334398E+01 0.79535226572E+01
 0.83210471785E+01 0.87001348268E+01 0.90772438892E+01 0.94391074169E+01 0.97738775937E+01
 0.95121035166E+01 0.97589574132E+01 0.99676192759E+01 0.10133283454E+02 0.10255759455E+02
 0.10339190545E+02 0.10389769555E+02 0.10413323914E+02 0.10413326146E+02 0.10389775552E+02
 0.10339198432E+02 0.10255766765E+02 0.10133287888E+02 0.99676193800E+01 0.97589529641E+01
 0.95120955032E+01 0.92322518832E+01 0.89265297134E+01 0.86043406966E+01 0.82766415533E+01
 0.79549773851E+01 0.76505181939E+01 0.73732630573E+01 0.71315258514E+01 0.69317349455E+01
 0.67785039507E+01 0.66748803055E+01 0.66226593717E+01 0.66226596177E+01 0.66748808790E+01
 0.67785044595E+01 0.69317350257E+01 0.71315254540E+01 0.73732626203E+01 0.76505185936E+01
 0.79549796540E+01 0.82766464526E+01 0.86043483059E+01 0.89265392141E+01 0.92322616512E+01
 0.89962083427E+01 0.92168331183E+01 0.94091301021E+01 0.95703137268E+01 0.96995432930E+01
 0.97970434636E+01 0.98640088797E+01 0.99027623545E+01 0.99154054009E+01 0.99027650944E+01
 0.98640131096E+01 0.97970471368E+01 0.96995443087E+01 0.95703106945E+01 0.94091228552E+01
 0.92168227969E+01 0.89961970247E+01 0.87521798262E+01 0.84917121062E+01 0.82232738218E+01
 0.79561746444E+01 0.76997438070E+01 0.74625779960E+01 0.72519803624E+01 0.70736654437E+01
 0.69317349455E+01 0.68288684890E+01 0.67666344645E+01 0.67458131364E+01 0.67666352151E+01
 0.68288693809E+01 0.69317350687E+01 0.70736640720E+01 0.72519774037E+01 0.74625742035E+01
 0.76997406385E+01 0.79561737978E+01 0.82232766082E+01 0.84917188986E+01 0.87521898057E+01
 0.85575579073E+01 0.87362668019E+01 0.88955111421E+01 0.90323228624E+01 0.91452421779E+01
 0.92340446454E+01 0.92993303570E+01 0.93420659085E+01 0.93631635406E+01 0.93631638764E+01
 0.93420664933E+01 0.92993301069E+01 0.92340422976E+01 0.91452368798E+01 0.90323146358E+01
 0.88955010320E+01 0.87362566419E+01 0.85575497752E+01 0.83639147433E+01 0.81612571756E+01
 0.79564239683E+01 0.77566137906E+01 0.75687447165E+01 0.73989041209E+01 0.72519803624E+01
 0.71315258514E+01 0.70398429333E+01 0.69782329298E+01 0.69473154897E+01 0.69473159365E+01
 0.69782338798E+01 0.70398433917E+01 0.71315246771E+01 0.72519768243E+01 0.73988983257E+01
 0.75687377282E+01 0.77566073778E+01 0.79564200589E+01 0.81612572139E+01 0.83639191845E+01
 0.82236626478E+01 0.83475749778E+01 0.84597438701E+01 0.85578527412E+01 0.86406033909E+01
 0.87075469440E+01 0.87588269835E+01 0.87948994992E+01 0.88162816738E+01 0.88233612795E+01
 0.88162804057E+01 0.87948967396E+01 0.87588224662E+01 0.87075406377E+01 0.86405957414E+01
 0.85578447518E+01 0.84597369536E+01 0.83475706060E+01 0.82236619089E+01 0.80913667422E+01
 0.79549226031E+01 0.78191218134E+01 0.76888735146E+01 0.75687447165E+01 0.74625779960E+01
 0.73732630573E+01 0.73026980337E+01 0.72519263084E+01 0.72213892262E+01 0.72112062616E+01
 0.72213901732E+01 0.72519274608E+01 0.73026982028E+01 0.73732610877E+01 0.74625732556E+01
 0.75687374148E+01 0.76888647320E+01 0.78191132273E+01 0.79549160058E+01 0.80913635180E+01
 0.80149740996E+01 0.80747157969E+01 0.81285394397E+01 0.81754691587E+01 0.82151043316E+01
 0.82474659622E+01 0.82728117954E+01 0.82914729343E+01 0.83037435295E+01 0.83098277381E+01
 0.83098266598E+01 0.83037404208E+01 0.82914681813E+01 0.82728060541E+01 0.82474601370E+01
 0.82150994887E+01 0.81754663605E+01 0.81285395209E+01 0.80747191372E+01 0.80149804688E+01
 0.79509395969E+01 0.78847922268E+01 0.78191218134E+01 0.77566137906E+01 0.76997438070E+01
 0.76505181939E+01 0.76103304616E+01 0.75799627583E+01 0.75597167599E+01 0.75496184785E+01
 0.75496192295E+01 0.75597186566E+01 0.75799648471E+01 0.76103314995E+01 0.76505170510E+01
 0.76997398372E+01 0.77566070561E+01 0.78191130986E+01 0.78847828451E+01 0.79509310556E+01
 0.79440100309E+01 0.79341252513E+01 0.79217278582E+01 0.79076801704E+01 0.78930905750E+01
 0.78791036249E+01 0.78667092962E+01 0.78566241552E+01 0.78492680418E+01 0.78448240729E+01
 0.78433406236E+01 0.78448220661E+01 0.78492645698E+01 0.78566201816E+01 0.78667059923E+01
 0.78791021086E+01 0.78930916583E+01 0.79076841715E+01 0.79217345188E+01 0.79341337778E+01
 0.79440192508E+01 0.79509395969E+01 0.79549226031E+01 0.79564239683E+01 0.79561746444E+01
 0.79549773851E+01 0.79535179387E+01 0.79522473621E+01 0.79513627835E+01 0.79508758082E+01
 0.79507253740E+01 0.79508777720E+01 0.79513661690E+01 0.79522512073E+01 0.79535210776E+01
 0.79549787117E+01 0.79561733652E+01 0.79564197887E+01 0.79549158060E+01 0.79509309963E+01
 0.80149741839E+01 0.79341253834E+01 0.78514342027E+01 0.77698912206E+01 0.76925618002E+01
 0.76222669596E+01 0.75613215492E+01 0.75113906020E+01 0.74734890268E+01 0.74481067453E+01
 0.74354041908E+01 0.74354034432E+01 0.74481048534E+01 0.74734869304E+01 0.75113895271E+01
 0.75613226116E+01 0.76222708004E+01 0.76925683649E+01 0.77698997443E+01 0.78514434004E+01
 0.79341337778E+01 0.80149804688E+01 0.80913667422E+01 0.81612571756E+01 0.82232738218E+01
 0.82766415533E+01 0.83210408511E+01 0.83564267909E+01 0.83828702691E+01 0.84004553901E+01
 0.84092369720E+01 0.84092380145E+01 0.84004583957E+01 0.83828748637E+01 0.83564323380E+01
 0.83210464718E+01 0.82766462100E+01 0.82232764796E+01 0.81612570219E+01 0.80913634085E+01
 0.82236627989E+01 0.80747161095E+01 0.79217281280E+01 0.77698913375E+01 0.76244928258E+01
 0.74904477693E+01 0.73719131208E+01 0.72720572978E+01 0.71930194465E+01 0.71360421743E+01
 0.71017177489E+01 0.70902607131E+01 0.71017168614E+01 0.71360411230E+01 0.71930193889E+01
 0.72720593534E+01 0.73719178905E+01 0.74904550252E+01 0.76245014872E+01 0.77698997443E+01
 0.79217345188E+01 0.80747191372E+01 0.82236619089E+01 0.83639147433E+01 0.84917121062E+01
 0.86043406966E+01 0.87001274689E+01 0.87782788425E+01 0.88386322212E+01 0.88813860261E+01
 0.89068604775E+01 0.89153191158E+01 0.89068616747E+01 0.88813886569E+01 0.88386365753E+01
 0.87782849822E+01 0.87001349811E+01 0.86043486069E+01 0.84917190207E+01 0.83639191952E+01
 0.85575580947E+01 0.83475752582E+01 0.81285397560E+01 0.79076804068E+01 0.76925620146E+01
 0.74904480027E+01 0.73077451017E+01 0.71496294784E+01 0.70199040815E+01 0.69210790482E+01
 0.68546160082E+01 0.68212438029E+01 0.68212434074E+01 0.68546152011E+01 0.69210787939E+01
 0.70199054779E+01 0.71496332104E+01 0.73077510232E+01 0.74904550252E+01 0.76925683649E+01
 0.79076841715E+01 0.81285395209E+01 0.83475706060E+01 0.85575497752E+01 0.87521798262E+01
 0.89265297134E+01 0.90772365100E+01 0.92024567730E+01 0.93016064604E+01 0.93749660341E+01
 0.94232403273E+01 0.94471552911E+01 0.94471549302E+01 0.94232396741E+01 0.93749661910E+01
 0.93016087170E+01 0.92024620107E+01 0.90772447317E+01 0.89265398882E+01 0.87521901203E+01
 0.89962085307E+01 0.87362668085E+01 0.84597438994E+01 0.81754692355E+01 0.78930908128E+01
 0.76222675369E+01 0.73719139147E+01 0.71496300045E+01 0.69613940877E+01 0.68115271637E+01
 0.67028769396E+01 0.66371277210E+01 0.66151267934E+01 0.66371270799E+01 0.67028762482E+01
 0.68115272991E+01 0.69613957338E+01 0.71496332104E+01 0.73719178905E+01 0.76222708004E+01
 0.78930916583E+01 0.81754663605E+01 0.84597369536E+01 0.87362566419E+01 0.89961970247E+01
 0.92322518832E+01 0.94391013052E+01 0.96135559430E+01 0.97543658823E+01 0.98613626873E+01
 0.99353918380E+01 0.99785003849E+01 0.99926132777E+01 0.99784976302E+01 0.99353875881E+01
 0.98613590052E+01 0.97543648874E+01 0.96135590406E+01 0.94391086681E+01 0.92322623657E+01
 0.95121036729E+01 0.92168326956E+01 0.88955106148E+01 0.85578523762E+01 0.82151043274E+01
 0.78791042433E+01 0.75613228165E+01 0.72720586830E+01 0.70199048361E+01 0.68115271523E+01
 0.66517206984E+01 0.65436554050E+01 0.64891976868E+01 0.64891974819E+01 0.65436549502E+01
 0.66517203728E+01 0.68115272991E+01 0.70199054779E+01 0.72720593534E+01 0.75613226116E+01
 0.78791021086E+01 0.82150994887E+01 0.85578447518E+01 0.88955010320E+01 0.92168227969E+01
 0.95120955032E+01 0.97738740444E+01 0.99965673765E+01 0.10174934928E+02 0.10308323626E+02
 0.10400423435E+02 0.10457029579E+02 0.10483673823E+02 0.10483671599E+02 0.10457023608E+02
 0.10400415598E+02 0.10308316396E+02 0.10174930607E+02 0.99965674140E+01 0.97738786520E+01
 0.10070517514E+02 0.97589565705E+01 0.94091289653E+01 0.90323219509E+01 0.86406029799E+01
 0.82474663061E+01 0.78667105358E+01 0.75113923357E+01 0.71930207034E+01 0.69210790531E+01
 0.67028759389E+01 0.65436544953E+01 0.64468501727E+01 0.64143782450E+01 0.64468504755E+01
 0.65436549502E+01 0.67028762482E+01 0.69210787939E+01 0.71930193889E+01 0.75113895271E+01
 0.78667059923E+01 0.82474601370E+01 0.86405957414E+01 0.90323146358E+01 0.94091228552E+01
 0.97589529641E+01 0.10070517391E+02 0.10330239916E+02 0.10530955400E+02 0.10673902214E+02
 0.10766849149E+02 0.10821101283E+02 0.10848052198E+02 0.10856021852E+02 0.10848047835E+02
 0.10821093522E+02 0.10766839676E+02 0.10673893023E+02 0.10530948319E+02 0.10330236206E+02
 0.10595361771E+02 0.10315770436E+02 0.99676177481E+01 0.95703124480E+01 0.91452414433E+01
 0.87075468776E+01 0.82728125505E+01 0.78566255924E+01 0.74734903406E+01 0.71360422684E+01
 0.68546144932E+01 0.66371254202E+01 0.64891959251E+01 0.64143776216E+01 0.64143782450E+01
 0.64891974819E+01 0.66371270799E+01 0.68546152011E+01 0.71360411230E+01 0.74734869304E+01
 0.78566201816E+01 0.82728060541E+01 0.87075406377E+01 0.91452368798E+01 0.95703106945E+01
 0.99676193800E+01 0.10315775362E+02 0.10595369298E+02 0.10798186579E+02 0.10927456315E+02
 0.10995874262E+02 0.11021945748E+02 0.11025388564E+02 0.11022514547E+02 0.11022513106E+02
 0.11025384353E+02 0.11021939116E+02 0.10995865834E+02 0.10927447007E+02 0.10798177543E+02
 0.10966604356E+02 0.10784063185E+02 0.10502887740E+02 0.10133282239E+02 0.96995426015E+01
 0.92340443376E+01 0.87588270588E+01 0.82914735309E+01 0.78492688830E+01 0.74481069273E+01
 0.71017164449E+01 0.68212412072E+01 0.66151241279E+01 0.64891959251E+01 0.64468501727E+01
 0.64891976868E+01 0.66151267934E+01 0.68212434074E+01 0.71017168614E+01 0.74481048534E+01
 0.78492645698E+01 0.82914681813E+01 0.87588224662E+01 0.92340422976E+01 0.96995443087E+01
 0.10133287888E+02 0.10502896467E+02 0.10784073371E+02 0.10966614161E+02 0.11055268986E+02
 0.11067972664E+02 0.11031744842E+02 0.10976996998E+02 0.10931298615E+02 0.10913786266E+02
 0.10931298352E+02 0.10976995879E+02 0.11031741972E+02 0.11067967316E+02 0.11055261045E+02
 0.11062618303E+02 0.11041376158E+02 0.10900057229E+02 0.10633611088E+02 0.10255759346E+02
 0.97970433790E+01 0.92993299399E+01 0.87948990188E+01 0.83037434230E+01 0.78448241602E+01
 0.74354036767E+01 0.70902590985E+01 0.68212412072E+01 0.66371254202E+01 0.65436544953E+01
 0.65436554050E+01 0.66371277210E+01 0.68212438029E+01 0.70902607131E+01 0.74354034432E+01
 0.78448220661E+01 0.83037404208E+01 0.87948967396E+01 0.92993301069E+01 0.97970471368E+01
 0.10255766765E+02 0.10633621047E+02 0.10900067726E+02 0.11041384962E+02 0.11062623702E+02
 0.10986451606E+02 0.10848976680E+02 0.10693175933E+02 0.10561033151E+02 0.10485795412E+02
 0.10485796722E+02 0.10561036457E+02 0.10693179595E+02 0.10848978657E+02 0.10986450227E+02
 0.10777520050E+02 0.10972717049E+02 0.11041047228E+02 0.10956659604E+02 0.10716262577E+02
 0.10339191288E+02 0.98640085114E+01 0.93420645319E+01 0.88162803397E+01 0.83098273346E+01
 0.78433409829E+01 0.74354036767E+01 0.71017164449E+01 0.68546144932E+01 0.67028759389E+01
 0.66517206984E+01 0.67028769396E+01 0.68546160082E+01 0.71017177489E+01 0.74354041908E+01
 0.78433406236E+01 0.83098266598E+01 0.88162804057E+01 0.93420664933E+01 0.98640131096E+01
 0.10339198432E+02 0.10716271200E+02 0.10956667882E+02 0.11041053121E+02 0.10972718977E+02
 0.10777517476E+02 0.10500113703E+02 0.10196949255E+02 0.99269445698E+01 0.97414927968E+01
 0.96755501599E+01 0.97414971894E+01 0.99269519757E+01 0.10196957362E+02 0.10500120004E+02
 0.10037038033E+02 0.10486577622E+02 0.10822477261E+02 0.10993423989E+02 0.10973059622E+02
 0.10762688654E+02 0.10389769957E+02 0.99027606555E+01 0.93631610066E+01 0.88233598644E+01
 0.83098273346E+01 0.78448241602E+01 0.74481069273E+01 0.71360422684E+01 0.69210790531E+01
 0.68115271523E+01 0.68115271637E+01 0.69210790482E+01 0.71360421743E+01 0.74481067453E+01
 0.78448240729E+01 0.83098277381E+01 0.88233612795E+01 0.93631638764E+01 0.99027650944E+01
 0.10389775552E+02 0.10762694423E+02 0.10973064172E+02 0.10993425871E+02 0.10822475419E+02
 0.10486571793E+02 0.10037028956E+02 0.95432204222E+01 0.90822866070E+01 0.87270071284E+01
 0.85339287226E+01 0.85339312953E+01 0.87270142412E+01 0.90822966116E+01 0.95432310797E+01
 0.88128379771E+01 0.95300928609E+01 0.10171106331E+02 0.10655860117E+02 0.10929757134E+02
 0.10969623958E+02 0.10784739950E+02 0.10413322710E+02 0.99154020551E+01 0.93631610066E+01
 0.88162803397E+01 0.83037434230E+01 0.78492688830E+01 0.74734903406E+01 0.71930207034E+01
 0.70199048361E+01 0.69613940877E+01 0.70199040815E+01 0.71930194465E+01 0.74734890268E+01
 0.78492680418E+01 0.83037435295E+01 0.88162816738E+01 0.93631635406E+01 0.99154054009E+01
 0.10413326146E+02 0.10784742535E+02 0.10969624716E+02 0.10929755276E+02 0.10655855255E+02
 0.10171098625E+02 0.95300830602E+01 0.88128273308E+01 0.81141778771E+01 0.75300033312E+01
 0.71424256235E+01 0.70067369127E+01 0.71424298224E+01 0.75300110307E+01 0.81141878254E+01
 0.71335760412E+01 0.81018514263E+01 0.90576832543E+01 0.98911949767E+01 0.10515832160E+02
 0.10878362269E+02 0.10963172137E+02 0.10791042118E+02 0.10413322710E+02 0.99027606555E+01
 0.93420645319E+01 0.87948990188E+01 0.82914735309E+01 0.78566255924E+01 0.75113923357E+01
 0.72720586830E+01 0.71496300045E+01 0.71496294784E+01 0.72720572978E+01 0.75113906020E+01
 0.78566241552E+01 0.82914729343E+01 0.87948994992E+01 0.93420659085E+01 0.99027623545E+01
 0.10413323914E+02 0.10791041991E+02 0.10963170055E+02 0.10878357985E+02 0.10515825860E+02
 0.98911872283E+01 0.90576748625E+01 0.81018432643E+01 0.71335689002E+01 0.62713241170E+01
 0.56249335130E+01 0.52788226120E+01 0.52788237865E+01 0.56249369654E+01 0.62713296202E+01
 0.50902329027E+01 0.62603180587E+01 0.75075357953E+01 0.86938695117E+01 0.96993006289E+01
 0.10436431124E+02 0.10858890041E+02 0.10963172137E+02 0.10784739950E+02 0.10389769957E+02
 0.98640085114E+01 0.92993299399E+01 0.87588270588E+01 0.82728125505E+01 0.78667105358E+01
 0.75613228165E+01 0.73719139147E+01 0.73077451017E+01 0.73719131208E+01 0.75613215492E+01
 0.78667092962E+01 0.82728117954E+01 0.87588269835E+01 0.92993303570E+01 0.98640088797E+01
 0.10389769555E+02 0.10784738136E+02 0.10963168594E+02 0.10858884923E+02 0.10436425035E+02
 0.96992944469E+01 0.86938641218E+01 0.75075318208E+01 0.62603156940E+01 0.50902319044E+01
 0.41343648335E+01 0.35088230970E+01 0.32912210171E+01 0.35088229971E+01 0.41343649968E+01
 0.28329372647E+01 0.41252042444E+01 0.56056364477E+01 0.71132825721E+01 0.84962343237E+01
 0.96311204796E+01 0.10436431124E+02 0.10878362269E+02 0.10969623958E+02 0.10762688654E+02
 0.10339191288E+02 0.97970433790E+01 0.92340443376E+01 0.87075468776E+01 0.82474663061E+01
 0.78791042433E+01 0.76222675369E+01 0.74904480027E+01 0.74904477693E+01 0.76222669596E+01
 0.78791036249E+01 0.82474659622E+01 0.87075469440E+01 0.92340446454E+01 0.97970434636E+01
 0.10339190545E+02 0.10762686591E+02 0.10969620448E+02 0.10878357692E+02 0.10436426338E+02
 0.96311165929E+01 0.84962323516E+01 0.71132830817E+01 0.56056393253E+01 0.41252086752E+01
 0.28329419469E+01 0.18762754660E+01 0.13675954889E+01 0.13675941790E+01 0.18762719351E+01
 0.55746199408E+00 0.18693415838E+01 0.34935985552E+01 0.52550725068E+01 0.69752628593E+01
 0.84962343237E+01 0.96993006289E+01 0.10515832160E+02 0.10929757134E+02 0.10973059622E+02
 0.10716262577E+02 0.10255759346E+02 0.96995426015E+01 0.91452414433E+01 0.86406029799E+01
 0.82151043274E+01 0.78930908128E+01 0.76925620146E+01 0.76244928258E+01 0.76925618002E+01
 0.78930905750E+01 0.82151043316E+01 0.86406033909E+01 0.91452421779E+01 0.96995432930E+01
 0.10255759455E+02 0.10716261625E+02 0.10973057453E+02 0.10929754103E+02 0.10515829148E+02
 0.96992988421E+01 0.84962349306E+01 0.69752665739E+01 0.52550792620E+01 0.34936073949E+01
 0.18693508321E+01 0.55746966832E+00 -.29505148455E+00 -.59061410254E+00 -.29505583348E+00
 -.15179111934E+01 -.29964613860E+00 0.13569359912E+01 0.32738760062E+01 0.52550725068E+01
 0.71132825721E+01 0.86938695117E+01 0.98911949767E+01 0.10655860117E+02 0.10993423989E+02
 0.10956659604E+02 0.10633611088E+02 0.10133282239E+02 0.95703124480E+01 0.90323219509E+01
 0.85578523762E+01 0.81754692355E+01 0.79076804068E+01 0.77698913375E+01 0.77698912206E+01
 0.79076801704E+01 0.81754691587E+01 0.85578527412E+01 0.90323228624E+01 0.95703137268E+01
 0.10133283454E+02 0.10633611730E+02 0.10956659350E+02 0.10993422938E+02 0.10655858896E+02
 0.98911946431E+01 0.86938712541E+01 0.71132872963E+01 0.52550804431E+01 0.32738864844E+01
 0.13569474824E+01 -.29963570049E+00 -.15179038928E+01 -.21632145657E+01 -.21632171882E+01
 -.31814267741E+01 -.21656836527E+01 -.59681037310E+00 0.13569359912E+01 0.34935985552E+01
 0.56056364477E+01 0.75075357953E+01 0.90576832543E+01 0.10171106331E+02 0.10822477261E+02
 0.11041047228E+02 0.10900057229E+02 0.10502887740E+02 0.99676177481E+01 0.94091289653E+01
 0.88955106148E+01 0.84597438994E+01 0.81285397560E+01 0.79217281280E+01 0.78514342027E+01
 0.79217278582E+01 0.81285394397E+01 0.84597438701E+01 0.88955111421E+01 0.94091301021E+01
 0.99676192759E+01 0.10502889249E+02 0.10900058313E+02 0.11041047716E+02 0.10822477386E+02
 0.10171106754E+02 0.90576849016E+01 0.75075395513E+01 0.56056427969E+01 0.34936073029E+01
 0.13569461739E+01 -.59680033417E+00 -.21656755846E+01 -.31814222750E+01 -.35329306361E+01
 -.42571619965E+01 -.35337930478E+01 -.21656836527E+01 -.29964613860E+00 0.18693415838E+01
 0.41252042444E+01 0.62603180587E+01 0.81018514263E+01 0.95300928609E+01 0.10486577622E+02
 0.10972717049E+02 0.11041376158E+02 0.10784063185E+02 0.10315770436E+02 0.97589565705E+01
 0.92168326956E+01 0.87362668085E+01 0.83475752582E+01 0.80747161095E+01 0.79341253834E+01
 0.79341252513E+01 0.80747157969E+01 0.83475749778E+01 0.87362668019E+01 0.92168331183E+01
 0.97589574132E+01 0.10315771522E+02 0.10784064251E+02 0.11041376989E+02 0.10972717612E+02
 0.10486578136E+02 0.95300937687E+01 0.81018532569E+01 0.62603212267E+01 0.41252088527E+01
 0.18693473049E+01 -.29964005046E+00 -.21656782086E+01 -.35337892709E+01 -.42571606445E+01
 -.42570540362E+01 -.38919237332E+01 -.28363689492E+01 -.12046503064E+01 0.82991780365E+00
 0.30588789117E+01 0.52675349841E+01 0.72635154387E+01 0.88995093220E+01 0.10086529473E+02
 0.10797036494E+02 0.11059689460E+02 0.10948438666E+02 0.10568351327E+02 0.10039882022E+02
 0.94813908495E+01 0.89662762140E+01 0.85286245064E+01 0.81956643527E+01 0.79876288477E+01
 0.79168980540E+01 0.79876287783E+01 0.81956642290E+01 0.85286243547E+01 0.89662760646E+01
 0.94813907288E+01 0.10039881946E+02 0.10568351301E+02 0.10948438681E+02 0.11059689500E+02