   2   2   0   0
  0.1391796E+02  0.2700000E-09  0.2700000E-09  0.4409073E-09  0.5000000E-15
  1.000000000000000E-004
  CAR 
 Si beta-tin                             
     22.91934201     -5.17439167  301     10.70831654      1.00000000
     -5.174  0.0000E+00  0.0000E+00
     -5.081  0.0000E+00  0.0000E+00
     -4.987  0.0000E+00  0.0000E+00
     -4.893  0.0000E+00  0.0000E+00
     -4.800  0.0000E+00  0.0000E+00
     -4.706  0.0000E+00  0.0000E+00
     -4.613  0.0000E+00  0.0000E+00
     -4.519  0.0000E+00  0.0000E+00
     -4.425  0.1653E-15  0.1548E-16
     -4.332  0.1630E-11  0.1527E-12
     -4.238  0.2897E-08  0.2715E-09
     -4.144  0.9470E-06  0.8896E-07
     -4.051  0.5882E-04  0.5597E-05
     -3.957  0.7300E-03  0.7396E-04
     -3.863  0.1919E-02  0.2537E-03
     -3.770  0.1108E-02  0.3574E-03
     -3.676  0.2360E-03  0.3795E-03
     -3.582  0.1116E-02  0.4840E-03
     -3.489  0.3221E-02  0.7856E-03
     -3.395  0.2755E-02  0.1044E-02
     -3.301  0.6902E-03  0.1108E-02
     -3.208  0.3213E-03  0.1138E-02
     -3.114  0.1490E-02  0.1278E-02
     -3.021  0.1734E-02  0.1440E-02
     -2.927  0.8862E-03  0.1523E-02
     -2.833  0.2771E-02  0.1783E-02
     -2.740  0.3710E-02  0.2130E-02
     -2.646  0.2044E-02  0.2322E-02
     -2.552  0.2421E-02  0.2548E-02
     -2.459  0.3583E-02  0.2884E-02
     -2.365  0.5564E-02  0.3405E-02
     -2.271  0.4191E-02  0.3797E-02
     -2.178  0.2349E-02  0.4017E-02
     -2.084  0.1420E-02  0.4150E-02
     -1.990  0.1979E-02  0.4336E-02
     -1.897  0.1153E-02  0.4444E-02
     -1.803  0.1548E-02  0.4589E-02
     -1.709  0.3875E-02  0.4951E-02
     -1.616  0.3099E-02  0.5242E-02
     -1.522  0.3726E-02  0.5591E-02
     -1.429  0.3663E-02  0.5934E-02
     -1.335  0.4667E-02  0.6371E-02
     -1.241  0.6087E-02  0.6941E-02
     -1.148  0.3493E-02  0.7268E-02
     -1.054  0.1710E-02  0.7428E-02
     -0.960  0.1829E-02  0.7599E-02
     -0.867  0.1598E-02  0.7749E-02
     -0.773  0.9516E-03  0.7838E-02
     -0.679  0.3127E-02  0.8131E-02
     -0.586  0.3645E-02  0.8472E-02
     -0.492  0.3196E-02  0.8771E-02
     -0.398  0.5175E-02  0.9256E-02
     -0.305  0.8200E-02  0.1002E-01
     -0.211  0.1057E-01  0.1101E-01
     -0.118  0.4525E-02  0.1144E-01
     -0.024  0.9033E-03  0.1152E-01
      0.070  0.3401E-02  0.1184E-01
      0.163  0.5746E-02  0.1238E-01
      0.257  0.2457E-02  0.1261E-01
      0.351  0.2573E-02  0.1285E-01
      0.444  0.3890E-02  0.1321E-01
      0.538  0.2755E-02  0.1347E-01
      0.632  0.4564E-02  0.1390E-01
      0.725  0.6634E-02  0.1452E-01
      0.819  0.9239E-02  0.1539E-01
      0.913  0.7327E-02  0.1607E-01
      1.006  0.4733E-02  0.1651E-01
      1.100  0.2305E-02  0.1673E-01
      1.194  0.2065E-02  0.1692E-01
      1.287  0.1538E-02  0.1707E-01
      1.381  0.4040E-02  0.1745E-01
      1.474  0.7658E-02  0.1816E-01
      1.568  0.3973E-02  0.1854E-01
      1.662  0.2367E-02  0.1876E-01
      1.755  0.4038E-02  0.1914E-01
      1.849  0.8668E-02  0.1995E-01
      1.943  0.7754E-02  0.2067E-01
      2.036  0.3450E-02  0.2100E-01
      2.130  0.2073E-02  0.2119E-01
      2.224  0.3639E-02  0.2153E-01
      2.317  0.3189E-02  0.2183E-01
      2.411  0.4196E-02  0.2222E-01
      2.505  0.1081E-01  0.2324E-01
      2.598  0.8794E-02  0.2406E-01
      2.692  0.5148E-02  0.2454E-01
      2.785  0.4589E-02  0.2497E-01
      2.879  0.7660E-02  0.2569E-01
      2.973  0.7818E-02  0.2642E-01
      3.066  0.2502E-02  0.2665E-01
      3.160  0.1277E-02  0.2677E-01
      3.254  0.3514E-02  0.2710E-01
      3.347  0.2800E-02  0.2737E-01
      3.441  0.2002E-02  0.2755E-01
      3.535  0.7555E-02  0.2826E-01
      3.628  0.1206E-01  0.2939E-01
      3.722  0.1084E-01  0.3040E-01
      3.816  0.8640E-02  0.3121E-01
      3.909  0.1051E-01  0.3220E-01
      4.003  0.9051E-02  0.3304E-01
      4.097  0.5185E-02  0.3353E-01
      4.190  0.1700E-02  0.3369E-01
      4.284  0.1966E-03  0.3371E-01
      4.377  0.7109E-03  0.3377E-01
      4.471  0.3166E-02  0.3407E-01
      4.565  0.8178E-02  0.3484E-01
      4.658  0.1059E-01  0.3583E-01
      4.752  0.4762E-02  0.3627E-01
      4.846  0.3939E-02  0.3664E-01
      4.939  0.1097E-01  0.3767E-01
      5.033  0.1371E-01  0.3895E-01
      5.127  0.8761E-02  0.3977E-01
      5.220  0.2457E-02  0.4000E-01
      5.314  0.1520E-02  0.4015E-01
      5.408  0.1886E-02  0.4032E-01
      5.501  0.2006E-02  0.4051E-01
      5.595  0.6810E-02  0.4115E-01
      5.689  0.7909E-02  0.4189E-01
      5.782  0.5061E-02  0.4236E-01
      5.876  0.8870E-02  0.4319E-01
      5.969  0.9978E-02  0.4413E-01
      6.063  0.9197E-02  0.4499E-01
      6.157  0.9706E-02  0.4590E-01
      6.250  0.4154E-02  0.4629E-01
      6.344  0.2552E-02  0.4653E-01
      6.438  0.5154E-02  0.4701E-01
      6.531  0.5579E-02  0.4753E-01
      6.625  0.8459E-02  0.4832E-01
      6.719  0.8656E-02  0.4914E-01
      6.812  0.5584E-02  0.4966E-01
      6.906  0.3532E-02  0.4999E-01
      7.000  0.4856E-02  0.5044E-01
      7.093  0.1180E-01  0.5155E-01
      7.187  0.1259E-01  0.5273E-01
      7.280  0.1092E-01  0.5375E-01
      7.374  0.6792E-02  0.5439E-01
      7.468  0.3367E-02  0.5470E-01
      7.561  0.3603E-02  0.5504E-01
      7.655  0.8248E-02  0.5581E-01
      7.749  0.9599E-02  0.5671E-01
      7.842  0.7104E-02  0.5738E-01
      7.936  0.6074E-02  0.5794E-01
      8.030  0.8080E-02  0.5870E-01
      8.123  0.1206E-01  0.5983E-01
      8.217  0.7702E-02  0.6055E-01
      8.311  0.3478E-02  0.6088E-01
      8.404  0.5656E-02  0.6141E-01
      8.498  0.6651E-02  0.6203E-01
      8.592  0.7018E-02  0.6269E-01
      8.685  0.1307E-01  0.6391E-01
      8.779  0.1382E-01  0.6521E-01
      8.872  0.1068E-01  0.6621E-01
      8.966  0.8660E-02  0.6702E-01
      9.060  0.5721E-02  0.6755E-01
      9.153  0.9638E-02  0.6845E-01
      9.247  0.1295E-01  0.6967E-01
      9.341  0.8332E-02  0.7045E-01
      9.434  0.6080E-02  0.7102E-01
      9.528  0.5567E-02  0.7154E-01
      9.622  0.2792E-02  0.7180E-01
      9.715  0.1349E-02  0.7193E-01
      9.809  0.6387E-02  0.7252E-01
      9.903  0.1396E-01  0.7383E-01
      9.996  0.1207E-01  0.7496E-01
     10.090  0.8048E-02  0.7572E-01
     10.184  0.7296E-02  0.7640E-01
     10.277  0.6008E-02  0.7696E-01
     10.371  0.6484E-02  0.7757E-01
     10.464  0.9833E-02  0.7849E-01
     10.558  0.7022E-02  0.7915E-01
     10.652  0.4500E-02  0.7957E-01
     10.745  0.8206E-02  0.8034E-01
     10.839  0.7160E-02  0.8101E-01
     10.933  0.4460E-02  0.8143E-01
     11.026  0.8903E-02  0.8226E-01
     11.120  0.1169E-01  0.8335E-01
     11.214  0.8013E-02  0.8410E-01
     11.307  0.9165E-02  0.8496E-01
     11.401  0.8429E-02  0.8575E-01
     11.495  0.6594E-02  0.8637E-01
     11.588  0.2955E-02  0.8665E-01
     11.682  0.3389E-02  0.8696E-01
     11.775  0.8912E-02  0.8780E-01
     11.869  0.9681E-02  0.8870E-01
     11.963  0.1312E-01  0.8993E-01
     12.056  0.1697E-01  0.9152E-01
     12.150  0.1658E-01  0.9308E-01
     12.244  0.1289E-01  0.9428E-01
     12.337  0.7886E-02  0.9502E-01
     12.431  0.4539E-02  0.9545E-01
     12.525  0.7618E-02  0.9616E-01
     12.618  0.5624E-02  0.9669E-01
     12.712  0.6381E-02  0.9728E-01
     12.806  0.1357E-01  0.9855E-01
     12.899  0.1886E-01  0.1003E+00
     12.993  0.1360E-01  0.1016E+00
     13.087  0.7474E-02  0.1023E+00
     13.180  0.1049E-01  0.1033E+00
     13.274  0.9254E-02  0.1041E+00
     13.367  0.3242E-02  0.1044E+00
     13.461  0.1732E-02  0.1046E+00
     13.555  0.1853E-02  0.1048E+00
     13.648  0.2804E-02  0.1050E+00
     13.742  0.1066E-01  0.1060E+00
     13.836  0.1459E-01  0.1074E+00
     13.929  0.1586E-01  0.1089E+00
     14.023  0.1933E-01  0.1107E+00
     14.117  0.1438E-01  0.1121E+00
     14.210  0.1143E-01  0.1131E+00
     14.304  0.7204E-02  0.1138E+00
     14.398  0.5903E-02  0.1144E+00
     14.491  0.6567E-02  0.1150E+00
     14.585  0.6723E-02  0.1156E+00
     14.679  0.1148E-01  0.1167E+00
     14.772  0.1380E-01  0.1180E+00
     14.866  0.7106E-02  0.1186E+00
     14.959  0.7859E-02  0.1194E+00
     15.053  0.9776E-02  0.1203E+00
     15.147  0.9295E-02  0.1211E+00
     15.240  0.8916E-02  0.1220E+00
     15.334  0.8356E-02  0.1228E+00
     15.428  0.8261E-02  0.1235E+00
     15.521  0.7617E-02  0.1243E+00
     15.615  0.5776E-02  0.1248E+00
     15.709  0.6026E-02  0.1254E+00
     15.802  0.8568E-02  0.1262E+00
     15.896  0.1135E-01  0.1272E+00
     15.990  0.1317E-01  0.1285E+00
     16.083  0.1755E-01  0.1301E+00
     16.177  0.1617E-01  0.1316E+00
     16.270  0.8533E-02  0.1324E+00
     16.364  0.2909E-02  0.1327E+00
     16.458  0.5226E-02  0.1332E+00
     16.551  0.8691E-02  0.1340E+00
     16.645  0.1064E-01  0.1350E+00
     16.739  0.9657E-02  0.1359E+00
     16.832  0.7104E-02  0.1366E+00
     16.926  0.1203E-01  0.1377E+00
     17.020  0.1032E-01  0.1386E+00
     17.113  0.2430E-02  0.1389E+00
     17.207  0.4726E-03  0.1389E+00
     17.301  0.3110E-02  0.1392E+00
     17.394  0.7489E-02  0.1399E+00
     17.488  0.1066E-01  0.1409E+00
     17.582  0.2025E-01  0.1428E+00
     17.675  0.2549E-01  0.1452E+00
     17.769  0.1596E-01  0.1467E+00
     17.862  0.5076E-02  0.1472E+00
     17.956  0.4469E-02  0.1476E+00
     18.050  0.4597E-02  0.1480E+00
     18.143  0.2543E-02  0.1483E+00
     18.237  0.3613E-02  0.1486E+00
     18.331  0.3195E-02  0.1489E+00
     18.424  0.4005E-02  0.1493E+00
     18.518  0.9681E-02  0.1502E+00
     18.612  0.1366E-01  0.1514E+00
     18.705  0.1212E-01  0.1526E+00
     18.799  0.7351E-02  0.1533E+00
     18.893  0.6325E-02  0.1539E+00
     18.986  0.6155E-02  0.1544E+00
     19.080  0.6739E-02  0.1551E+00
     19.174  0.6516E-02  0.1557E+00
     19.267  0.2384E-02  0.1559E+00
     19.361  0.2065E-03  0.1559E+00
     19.454  0.3700E-04  0.1559E+00
     19.548  0.6690E-03  0.1560E+00
     19.642  0.3705E-02  0.1563E+00
     19.735  0.6820E-02  0.1570E+00
     19.829  0.4132E-02  0.1574E+00
     19.923  0.1860E-02  0.1575E+00
     20.016  0.2623E-02  0.1578E+00
     20.110  0.2567E-02  0.1580E+00
     20.204  0.1173E-02  0.1581E+00
     20.297  0.1432E-03  0.1581E+00
     20.391  0.2485E-04  0.1582E+00
     20.485  0.4599E-03  0.1582E+00
     20.578  0.2390E-02  0.1584E+00
     20.672  0.3648E-02  0.1588E+00
     20.765  0.2783E-02  0.1590E+00
     20.859  0.1982E-02  0.1592E+00
     20.953  0.5469E-03  0.1593E+00
     21.046  0.3405E-04  0.1593E+00
     21.140  0.7873E-05  0.1593E+00
     21.234  0.2225E-03  0.1593E+00
     21.327  0.1363E-02  0.1594E+00
     21.421  0.1810E-02  0.1596E+00
     21.515  0.6602E-03  0.1596E+00
     21.608  0.1138E-02  0.1597E+00
     21.702  0.1920E-02  0.1599E+00
     21.796  0.7300E-03  0.1600E+00
     21.889  0.5882E-04  0.1600E+00
     21.983  0.9470E-06  0.1600E+00
     22.077  0.2897E-08  0.1600E+00
     22.170  0.1630E-11  0.1600E+00
     22.264  0.1651E-15  0.1600E+00
     22.357  0.0000E+00  0.1600E+00
     22.451  0.0000E+00  0.1600E+00
     22.545  0.0000E+00  0.1600E+00
     22.638  0.0000E+00  0.1600E+00
     22.732  0.0000E+00  0.1600E+00
     22.826  0.0000E+00  0.1600E+00
     22.919  0.0000E+00  0.1600E+00
