    2    2  100    1
  0.1391796E+02  0.2700000E-09  0.2700000E-09  0.4409073E-09  0.5000000E-15
  1.000000000000000E-004
  CAR 
 Si beta-tin                             
      8     36      8
 
  0.8333333E-01  0.8333333E-01  0.8333333E-01  0.1851852E-01
    1       -3.536381   1.000000
    2        2.831819   1.000000
    3        5.332143   1.000000
    4       14.678694   0.000000
    5       15.247449   0.000000
    6       20.077195   0.000000
    7       20.572077   0.000000
    8       20.640359   0.000000
 
  0.2500000E+00  0.8333333E-01  0.8333333E-01  0.3703704E-01
    1       -1.742344   1.000000
    2        4.570465   1.000000
    3        7.029487   1.000000
    4        8.757702   1.000000
    5       12.744397   0.000000
    6       14.750150   0.000000
    7       16.912998   0.000000
    8       18.651339   0.000000
 
  0.4166667E+00  0.8333333E-01  0.8333333E-01  0.3703704E-01
    1        1.408599   1.000000
    2        3.632017   1.000000
    3        7.613680   1.000000
    4        9.447389   1.000000
    5       10.426204   0.999967
    6       11.758344   0.000000
    7       12.269458   0.000000
    8       17.662234   0.000000
 
 -0.4166667E+00  0.8333333E-01  0.8333333E-01  0.3703704E-01
    1       -0.322538   1.000000
    2        5.857570   1.000000
    3        6.108045   1.000000
    4        8.372676   1.000000
    5       12.023661   0.000000
    6       12.236936   0.000000
    7       14.469587   0.000000
    8       17.986633   0.000000
 
 -0.2500000E+00  0.8333333E-01  0.8333333E-01  0.3703704E-01
    1       -2.816511   1.000000
    2        3.530375   1.000000
    3        6.016693   1.000000
    4       11.731107   0.000000
    5       13.741822   0.000000
    6       17.535415   0.000000
    7       19.112804   0.000000
    8       19.724033   0.000000
 
 -0.8333333E-01  0.8333333E-01  0.8333333E-01  0.1851852E-01
    1       -3.897404   1.000000
    2        2.481174   1.000000
    3        4.988243   1.000000
    4       16.428392   0.000000
    5       17.527821   0.000000
    6       19.625532   0.000000
    7       21.344772   0.000000
    8       21.642354   0.000000
 
  0.2500000E+00  0.2500000E+00  0.8333333E-01  0.1851852E-01
    1        0.735236   1.000000
    2        6.623587   1.000000
    3        7.051639   1.000000
    4        7.436885   1.000000
    5        9.362899   1.000000
    6       12.701814   0.000000
    7       13.470885   0.000000
    8       15.150532   0.000000
 
  0.4166667E+00  0.2500000E+00  0.8333333E-01  0.3703704E-01
    1        2.455974   1.000000
    2        4.617474   1.000000
    3        6.802038   1.000000
    4        8.629179   1.000000
    5       10.440881   0.999922
    6       11.246177   0.000000
    7       12.508451   0.000000
    8       13.749695   0.000000
 
 -0.4166667E+00  0.2500000E+00  0.8333333E-01  0.3703704E-01
    1       -0.675036   1.000000
    2        5.598328   1.000000
    3        7.659215   1.000000
    4        8.090305   1.000000
    5        9.844725   1.000000
    6       13.724537   0.000000
    7       15.403616   0.000000
    8       16.506863   0.000000
 
 -0.2500000E+00  0.2500000E+00  0.8333333E-01  0.1851852E-01
    1       -2.457745   1.000000
    2        3.878130   1.000000
    3        6.356525   1.000000
    4       10.102435   1.000000
    5       15.089762   0.000000
    6       16.037048   0.000000
    7       17.427288   0.000000
    8       18.241643   0.000000
 
  0.4166667E+00  0.4166667E+00  0.8333333E-01  0.1851852E-01
    1        2.517208   1.000000
    2        3.219170   1.000000
    3        8.645056   1.000000
    4        9.159645   1.000000
    5        9.268351   1.000000
    6       11.261904   0.000000
    7       11.805998   0.000000
    8       15.347614   0.000000
 
 -0.4166667E+00  0.4166667E+00  0.8333333E-01  0.1851852E-01
    1        0.377963   1.000000
    2        4.644935   1.000000
    3        6.629346   1.000000
    4        8.976053   1.000000
    5       10.921662   0.001276
    6       13.218363   0.000000
    7       13.832882   0.000000
    8       16.125011   0.000000
 
  0.8333333E-01  0.8333333E-01  0.2500000E+00  0.1851852E-01
    1       -3.105313   1.000000
    2        0.733117   1.000000
    3        8.190499   1.000000
    4       15.062422   0.000000
    5       15.575058   0.000000
    6       18.420252   0.000000
    7       18.641179   0.000000
    8       19.127251   0.000000
 
  0.2500000E+00  0.8333333E-01  0.2500000E+00  0.3703704E-01
    1       -1.314802   1.000000
    2        2.491287   1.000000
    3        9.125490   1.000000
    4        9.843885   1.000000
    5       12.830980   0.000000
    6       13.151822   0.000000
    7       16.639375   0.000000
    8       18.863020   0.000000
 
  0.4166667E+00  0.8333333E-01  0.2500000E+00  0.3703704E-01
    1        1.830371   1.000000
    2        4.043566   1.000000
    3        5.588310   1.000000
    4        7.730094   1.000000
    5       12.130137   0.000000
    6       12.894756   0.000000
    7       14.689845   0.000000
    8       16.114952   0.000000
 
 -0.4166667E+00  0.8333333E-01  0.2500000E+00  0.3703704E-01
    1        0.102262   1.000000
    2        3.879865   1.000000
    3        6.435549   1.000000
    4        9.933052   1.000000
    5       11.407981   0.000000
    6       12.483480   0.000000
    7       15.869381   0.000000
    8       17.349620   0.000000
 
 -0.2500000E+00  0.8333333E-01  0.2500000E+00  0.3703704E-01
    1       -2.386865   1.000000
    2        1.438813   1.000000
    3        8.854135   1.000000
    4       12.121845   0.000000
    5       14.111709   0.000000
    6       15.686268   0.000000
    7       17.643236   0.000000
    8       18.988006   0.000000
 
 -0.8333333E-01  0.8333333E-01  0.2500000E+00  0.1851852E-01
    1       -3.465589   1.000000
    2        0.379150   1.000000
    3        7.854663   1.000000
    4       16.765258   0.000000
    5       17.894580   0.000000
    6       18.197295   0.000000
    7       19.950931   0.000000
    8       20.784616   0.000000
 
  0.2500000E+00  0.2500000E+00  0.2500000E+00  0.1851852E-01
    1        1.157885   1.000000
    2        4.910535   1.000000
    3        7.131380   1.000000
    4        7.839105   1.000000
    5       10.766566   0.205033
    6       11.063160   0.000000
    7       12.750682   0.000000
    8       17.623491   0.000000
 
  0.4166667E+00  0.2500000E+00  0.2500000E+00  0.3703704E-01
    1        2.875202   1.000000
    2        5.025486   1.000000
    3        6.601341   1.000000
    4        7.230130   1.000000
    5        8.708874   1.000000
    6       10.754410   0.257244
    7       14.014767   0.000000
    8       16.013033   0.000000
 
 -0.4166667E+00  0.2500000E+00  0.2500000E+00  0.3703704E-01
    1       -0.249583   1.000000
    2        3.535806   1.000000
    3        8.100656   1.000000
    4       10.223549   1.000000
    5       10.682833   0.640721
    6       11.916566   0.000000
    7       13.961719   0.000000
    8       18.544762   0.000000
 
 -0.2500000E+00  0.2500000E+00  0.2500000E+00  0.1851852E-01
    1       -2.028777   1.000000
    2        1.790438   1.000000
    3        9.174179   1.000000
    4       10.505072   0.997975
    5       14.142804   0.000000
    6       15.465072   0.000000
    7       17.584647   0.000000
    8       18.785171   0.000000
 
  0.4166667E+00  0.4166667E+00  0.2500000E+00  0.1851852E-01
    1        2.938272   1.000000
    2        3.632034   1.000000
    3        6.677972   1.000000
    4        7.320946   1.000000
    5        9.542525   1.000000
    6       12.831203   0.000000
    7       13.947976   0.000000
    8       15.106895   0.000000
 
 -0.4166667E+00  0.4166667E+00  0.2500000E+00  0.1851852E-01
    1        0.801485   1.000000
    2        4.550144   1.000000
    3        5.086384   1.000000
    4        8.701548   1.000000
    5       11.977199   0.000000
    6       14.209935   0.000000
    7       15.808251   0.000000
    8       16.474717   0.000000
 
  0.8333333E-01  0.8333333E-01  0.4166667E+00  0.1851852E-01
    1       -2.245913   1.000000
    2       -0.963689   1.000000
    3       11.382320   0.000000
    4       14.735279   0.000000
    5       15.825513   0.000000
    6       16.680742   0.000000
    7       16.957409   0.000000
    8       17.676743   0.000000
 
  0.2500000E+00  0.8333333E-01  0.4166667E+00  0.3703704E-01
    1       -0.462433   1.000000
    2        0.809144   1.000000
    3        9.938685   1.000000
    4       11.065792   0.000000
    5       13.102961   0.000000
    6       13.858724   0.000000
    7       15.243437   0.000000
    8       16.635555   0.000000
 
  0.4166667E+00  0.8333333E-01  0.4166667E+00  0.3703704E-01
    1        2.670394   1.000000
    2        3.916679   1.000000
    3        4.887823   1.000000
    4        6.112902   1.000000
    5       12.909713   0.000000
    6       13.983237   0.000000
    7       16.052696   0.000000
    8       17.707919   0.000000
 
 -0.4166667E+00  0.8333333E-01  0.4166667E+00  0.3703704E-01
    1        0.949008   1.000000
    2        2.211698   1.000000
    3        7.249610   1.000000
    4        8.457400   1.000000
    5       13.226072   0.000000
    6       13.955034   0.000000
    7       14.945249   0.000000
    8       17.601514   0.000000
 
 -0.2500000E+00  0.8333333E-01  0.4166667E+00  0.3703704E-01
    1       -1.530283   1.000000
    2       -0.252284   1.000000
    3       11.959460   0.000000
    4       12.874373   0.000000
    5       14.189319   0.000000
    6       14.664870   0.000000
    7       15.953713   0.000000
    8       16.185529   0.000000
 
 -0.8333333E-01  0.8333333E-01  0.4166667E+00  0.1851852E-01
    1       -2.604781   1.000000
    2       -1.320458   1.000000
    3       11.066394   0.000000
    4       14.550553   0.000000
    5       17.601871   0.000000
    6       18.621767   0.000000
    7       18.686488   0.000000
    8       19.683110   0.000000
 
  0.2500000E+00  0.2500000E+00  0.4166667E+00  0.1851852E-01
    1        2.000137   1.000000
    2        3.255496   1.000000
    3        7.941309   1.000000
    4        8.624728   1.000000
    5        9.180997   1.000000
    6        9.820197   1.000000
    7       15.510884   0.000000
    8       18.472640   0.000000
 
  0.4166667E+00  0.2500000E+00  0.4166667E+00  0.3703704E-01
    1        3.709553   1.000000
    2        4.941814   1.000000
    3        5.878406   1.000000
    4        7.087156   1.000000
    5        8.039434   1.000000
    6        9.230411   1.000000
    7       16.941871   0.000000
    8       18.525107   0.000000
 
 -0.4166667E+00  0.2500000E+00  0.4166667E+00  0.3703704E-01
    1        0.598513   1.000000
    2        1.863457   1.000000
    3        8.908259   1.000000
    4       10.089475   1.000000
    5       11.026055   0.000004
    6       12.095757   0.000000
    7       14.357524   0.000000
    8       17.524010   0.000000
 
 -0.2500000E+00  0.2500000E+00  0.4166667E+00  0.1851852E-01
    1       -1.173620   1.000000
    2        0.102260   1.000000
    3       11.260438   0.000000
    4       11.980185   0.000000
    5       12.957340   0.000000
    6       15.798316   0.000000
    7       16.213697   0.000000
    8       17.328821   0.000000
 
  0.4166667E+00  0.4166667E+00  0.4166667E+00  0.1851852E-01
    1        3.774883   1.000000
    2        4.443022   1.000000
    3        5.049178   1.000000
    4        5.699911   1.000000
    5       10.335814   1.000000
    6       11.499115   0.000000
    7       16.894049   0.000000
    8       17.717387   0.000000
 
 -0.4166667E+00  0.4166667E+00  0.4166667E+00  0.1851852E-01
    1        1.645492   1.000000
    2        2.903389   1.000000
    3        5.891857   1.000000
    4        7.114170   1.000000
    5       14.956056   0.000000
    6       14.962913   0.000000
    7       16.087419   0.000000
    8       16.870378   0.000000
