       N       E                     dE             d eps       ncg     rms          rms(c)
DAV:   1     0.285609073861E+01    0.28561E+01   -0.31373E+03   576   0.710E+02
DAV:   2    -0.975936422658E+01   -0.12615E+02   -0.11967E+02   872   0.729E+01
DAV:   3    -0.988836462819E+01   -0.12900E+00   -0.12898E+00   792   0.908E+00
DAV:   4    -0.988864337186E+01   -0.27874E-03   -0.27874E-03   840   0.423E-01
DAV:   5    -0.988864375250E+01   -0.38063E-06   -0.38128E-06   800   0.112E-02    0.403E+00
DAV:   6    -0.986152063492E+01    0.27123E-01   -0.82664E-03   768   0.569E-01    0.223E+00
DAV:   7    -0.984606842487E+01    0.15452E-01   -0.15690E-02   752   0.778E-01    0.150E-01
DAV:   8    -0.984593903402E+01    0.12939E-03   -0.12652E-04   864   0.988E-02    0.248E-02
DAV:   9    -0.984594004899E+01   -0.10150E-05   -0.18173E-06   448   0.113E-02
   1 F= -.98459400E+01 E0= -.98451280E+01  d E =-.984594E+01
       N       E                     dE             d eps       ncg     rms          rms(c)
DAV:   1    -0.985335045643E+01   -0.74114E-02   -0.11104E-01   840   0.207E+00    0.201E-01
DAV:   2    -0.985244843371E+01    0.90202E-03   -0.20036E-03   640   0.376E-01    0.113E-01
DAV:   3    -0.985197761085E+01    0.47082E-03   -0.11568E-03   856   0.192E-01    0.969E-03
DAV:   4    -0.985198143258E+01   -0.38217E-05   -0.39415E-05   616   0.520E-02
   2 F= -.98519814E+01 E0= -.98506117E+01  d E =-.604138E-02
       N       E                     dE             d eps       ncg     rms          rms(c)
DAV:   1    -0.985160085647E+01    0.37675E-03   -0.93892E-01   872   0.608E+00    0.608E-01
DAV:   2    -0.984392090630E+01    0.76800E-02   -0.16524E-02   648   0.107E+00    0.339E-01
DAV:   3    -0.983995210231E+01    0.39688E-02   -0.95749E-03   856   0.550E-01    0.291E-02
DAV:   4    -0.983998230921E+01   -0.30207E-04   -0.30840E-04   624   0.147E-01    0.234E-02
DAV:   5    -0.983998641827E+01   -0.41091E-05   -0.25478E-06   656   0.158E-02
   3 F= -.98399864E+01 E0= -.98377470E+01  d E =0.595363E-02
       N       E                     dE             d eps       ncg     rms          rms(c)
DAV:   1    -0.986182392240E+01   -0.21842E-01   -0.47635E-01   880   0.429E+00    0.445E-01
DAV:   2    -0.985742640063E+01    0.43975E-02   -0.85274E-03   632   0.766E-01    0.247E-01
DAV:   3    -0.985520780436E+01    0.22186E-02   -0.54039E-03   856   0.416E-01    0.209E-02
DAV:   4    -0.985522635010E+01   -0.18546E-04   -0.18103E-04   632   0.112E-01    0.167E-02
DAV:   5    -0.985522929885E+01   -0.29487E-05   -0.12276E-06   464   0.117E-02
   4 F= -.98552293E+01 E0= -.98532091E+01  d E =-.928925E-02
       N       E                     dE             d eps       ncg     rms          rms(c)
DAV:   1    -0.985532031317E+01   -0.93963E-04   -0.19051E-03   880   0.271E-01    0.283E-02
DAV:   2    -0.985530343353E+01    0.16880E-04   -0.34157E-05   632   0.485E-02    0.155E-02
DAV:   3    -0.985529490669E+01    0.85268E-05   -0.20201E-05   520   0.258E-02
   5 F= -.98552949E+01 E0= -.98530838E+01  d E =-.935486E-02
