 vasp.5.4.1 24Jun15 (build Jul 19 2016 16:50:41) complex                        
  
 executed on           IFC91_ompi date 2019.10.10  11:15:31
 running on    4 total cores
 distrk:  each k-point on    4 cores,    1 groups
 distr:  one band on NCORES_PER_BAND=   1 cores,    4 groups


--------------------------------------------------------------------------------------------------------


 INCAR:
 POTCAR:    PAW_PBE Si 05Jan2001                  
 POTCAR:    PAW_PBE Si 05Jan2001                  
   VRHFIN = Si: s2p2                                                            
   LEXCH  = PE                                                                  
   EATOM  =   103.0669 eV,    7.5752 Ry                                         
                                                                                
   TITEL  = PAW_PBE Si 05Jan2001                                                
   LULTRA =        F    use ultrasoft PP ?                                      
   IUNSCR =        1    unscreen: 0-lin 1-nonlin 2-no                           
   RPACOR =    1.500    partial core radius                                     
   POMASS =   28.085; ZVAL   =    4.000    mass and valenz                      
   RCORE  =    1.900    outmost cutoff radius                                   
   RWIGS  =    2.480; RWIGS  =    1.312    wigner-seitz radius (au A)           
   ENMAX  =  245.345; ENMIN  =  184.009 eV                                      
   ICORE  =        2    local potential                                         
   LCOR   =        T    correct aug charges                                     
   LPAW   =        T    paw PP                                                  
   EAUG   =  322.069                                                            
   DEXC   =    0.000                                                            
   RMAX   =    1.950    core radius for proj-oper                               
   RAUG   =    1.300    factor for augmentation sphere                          
   RDEP   =    1.993    radius for radial grids                                 
   RDEPT  =    1.837    core radius for aug-charge                              
                                                                                
   Atomic configuration                                                         
    6 entries                                                                   
     n  l   j            E        occ.                                          
     1  0  0.50     -1785.8828   2.0000                                         
     2  0  0.50      -139.4969   2.0000                                         
     2  1  1.50       -95.5546   6.0000                                         
     3  0  0.50       -10.8127   2.0000                                         
     3  1  0.50        -4.0811   2.0000                                         
     3  2  1.50        -4.0817   0.0000                                         
   Description                                                                  
     l       E           TYP  RCUT    TYP  RCUT                                 
     0    -10.8127223     23  1.900                                             
     0     -7.6451159     23  1.900                                             
     1     -4.0811372     23  1.900                                             
     1      2.4879257     23  1.900                                             
     2     -4.0817478      7  1.900                                             
  local pseudopotential read in
  partial core-charges read in
  partial kinetic energy density read in
  atomic valenz-charges read in
  non local Contribution for L=           0  read in
    real space projection operators read in
  non local Contribution for L=           0  read in
    real space projection operators read in
  non local Contribution for L=           1  read in
    real space projection operators read in
  non local Contribution for L=           1  read in
    real space projection operators read in
    PAW grid and wavefunctions read in
 
   number of l-projection  operators is LMAX  =           4
   number of lm-projection operators is LMMAX =           8
 
  PAW_PBE Si 05Jan2001                  :
 energy of atom  1       EATOM= -103.0669
 kinetic energy error for atom=    0.0009 (will be added to EATOM!!)
 
 
 POSCAR: Si HCP                                  
  positions in direct lattice
  No initial velocities read in
 exchange correlation table for  LEXCH =        8
   RHO(1)=    0.500       N(1)  =     2000
   RHO(2)=  100.500       N(2)  =     4000
 


--------------------------------------------------------------------------------------------------------


 ion  position               nearest neighbor table
   1  0.000  0.000  0.000-   2 2.70   2 2.70   2 2.70   2 2.70   2 2.70   2 2.70
   2  0.333  0.667  0.500-   1 2.70   1 2.70   1 2.70   1 2.70   1 2.70   1 2.70
 
  LATTYP: Found a hexagonal cell.
 ALAT       =     2.7000000000
 C/A-ratio  =     1.6329900000
  
  Lattice vectors:
  
 A1 = (   2.7000000000,   0.0000000000,   0.0000000000)
 A2 = (  -1.3500000000,   2.3382685902,   0.0000000000)
 A3 = (   0.0000000000,   0.0000000000,   4.4090730000)


Analysis of symmetry for initial positions (statically):
=====================================================================
 Subroutine PRICEL returns:
 Original cell was already a primitive cell.
 

 Routine SETGRP: Setting up the symmetry group for a 
 hexagonal supercell.


 Subroutine GETGRP returns: Found 24 space group operations
 (whereof 12 operations were pure point group operations)
 out of a pool of 24 trial point group operations.


The static configuration has the point symmetry D_3h.
 The point group associated with its full space group is D_6h.


Analysis of symmetry for dynamics (positions and initial velocities):
=====================================================================
 Subroutine PRICEL returns:
 Original cell was already a primitive cell.
 

 Routine SETGRP: Setting up the symmetry group for a 
 hexagonal supercell.


 Subroutine GETGRP returns: Found 24 space group operations
 (whereof 12 operations were pure point group operations)
 out of a pool of 24 trial point group operations.


The dynamic configuration has the point symmetry D_3h.
 The point group associated with its full space group is D_6h.


 Subroutine INISYM returns: Found 24 space group operations
 (whereof 12 operations are pure point group operations),
 and found     1 'primitive' translations

 
 
 KPOINTS: K-Points                                

Automatic generation of k-mesh.
Space group operators:
 irot       det(A)        alpha          n_x          n_y          n_z        tau_x        tau_y        tau_z
    1     1.000000     0.000000     1.000000     0.000000     0.000000     0.000000     0.000000     0.000000
    2    -1.000000    60.000000     0.000000     0.000000    -1.000000     0.000000     0.000000     0.000000
    3     1.000000   120.000000     0.000000     0.000000    -1.000000     0.000000     0.000000     0.000000
    4    -1.000000   180.000000     0.000000     0.000000     1.000000     0.000000     0.000000     0.000000
    5     1.000000   120.000000     0.000000     0.000000     1.000000     0.000000     0.000000     0.000000
    6    -1.000000    60.000000     0.000000     0.000000     1.000000     0.000000     0.000000     0.000000
    7    -1.000000   180.000000     1.000000     0.000000     0.000000     0.000000     0.000000     0.000000
    8     1.000000   180.000000     0.866025    -0.500000     0.000000     0.000000     0.000000     0.000000
    9    -1.000000   180.000000     0.500000    -0.866025     0.000000     0.000000     0.000000     0.000000
   10     1.000000   180.000000     0.000000     1.000000     0.000000     0.000000     0.000000     0.000000
   11    -1.000000   180.000000    -0.500000    -0.866025     0.000000     0.000000     0.000000     0.000000
   12     1.000000   180.000000     0.866025     0.500000     0.000000     0.000000     0.000000     0.000000
   13    -1.000000     0.000000     1.000000     0.000000     0.000000     0.333333     0.666667     0.500000
   14     1.000000    60.000000     0.000000     0.000000    -1.000000     0.333333     0.666667     0.500000
   15    -1.000000   120.000000     0.000000     0.000000    -1.000000     0.333333     0.666667     0.500000
   16     1.000000   180.000000     0.000000     0.000000     1.000000     0.333333     0.666667     0.500000
   17    -1.000000   120.000000     0.000000     0.000000     1.000000     0.333333     0.666667     0.500000
   18     1.000000    60.000000     0.000000     0.000000     1.000000     0.333333     0.666667     0.500000
   19     1.000000   180.000000     1.000000     0.000000     0.000000     0.333333     0.666667     0.500000
   20    -1.000000   180.000000     0.866025    -0.500000     0.000000     0.333333     0.666667     0.500000
   21     1.000000   180.000000     0.500000    -0.866025     0.000000     0.333333     0.666667     0.500000
   22    -1.000000   180.000000     0.000000     1.000000     0.000000     0.333333     0.666667     0.500000
   23     1.000000   180.000000    -0.500000    -0.866025     0.000000     0.333333     0.666667     0.500000
   24    -1.000000   180.000000     0.866025     0.500000     0.000000     0.333333     0.666667     0.500000
 
 Subroutine IBZKPT returns following result:
 ===========================================
 
 Found     36 irreducible k-points:
 
 Following reciprocal coordinates:
            Coordinates               Weight
  0.083333  0.083333  0.083333     96.000000
  0.250000  0.083333  0.083333    192.000000
  0.416667  0.083333  0.083333    192.000000
 -0.416667  0.083333  0.083333    192.000000
 -0.250000  0.083333  0.083333    192.000000
 -0.083333  0.083333  0.083333     96.000000
  0.250000  0.250000  0.083333     96.000000
  0.416667  0.250000  0.083333    192.000000
 -0.416667  0.250000  0.083333    192.000000
 -0.250000  0.250000  0.083333     96.000000
  0.416667  0.416667  0.083333     96.000000
 -0.416667  0.416667  0.083333     96.000000
  0.083333  0.083333  0.250000     96.000000
  0.250000  0.083333  0.250000    192.000000
  0.416667  0.083333  0.250000    192.000000
 -0.416667  0.083333  0.250000    192.000000
 -0.250000  0.083333  0.250000    192.000000
 -0.083333  0.083333  0.250000     96.000000
  0.250000  0.250000  0.250000     96.000000
  0.416667  0.250000  0.250000    192.000000
 -0.416667  0.250000  0.250000    192.000000
 -0.250000  0.250000  0.250000     96.000000
  0.416667  0.416667  0.250000     96.000000
 -0.416667  0.416667  0.250000     96.000000
  0.083333  0.083333  0.416667     96.000000
  0.250000  0.083333  0.416667    192.000000
  0.416667  0.083333  0.416667    192.000000
 -0.416667  0.083333  0.416667    192.000000
 -0.250000  0.083333  0.416667    192.000000
 -0.083333  0.083333  0.416667     96.000000
  0.250000  0.250000  0.416667     96.000000
  0.416667  0.250000  0.416667    192.000000
 -0.416667  0.250000  0.416667    192.000000
 -0.250000  0.250000  0.416667     96.000000
  0.416667  0.416667  0.416667     96.000000
 -0.416667  0.416667  0.416667     96.000000
 
 Following cartesian coordinates:
            Coordinates               Weight
  0.083333  0.144338  0.051031     96.000000
  0.250000  0.240563  0.051031    192.000000
  0.416667  0.336788  0.051031    192.000000
 -0.416667 -0.144338  0.051031    192.000000
 -0.250000 -0.048113  0.051031    192.000000
 -0.083333  0.048113  0.051031     96.000000
  0.250000  0.433013  0.051031     96.000000
  0.416667  0.529238  0.051031    192.000000
 -0.416667  0.048113  0.051031    192.000000
 -0.250000  0.144338  0.051031     96.000000
  0.416667  0.721688  0.051031     96.000000
 -0.416667  0.240563  0.051031     96.000000
  0.083333  0.144338  0.153093     96.000000
  0.250000  0.240563  0.153093    192.000000
  0.416667  0.336788  0.153093    192.000000
 -0.416667 -0.144338  0.153093    192.000000
 -0.250000 -0.048113  0.153093    192.000000
 -0.083333  0.048113  0.153093     96.000000
  0.250000  0.433013  0.153093     96.000000
  0.416667  0.529238  0.153093    192.000000
 -0.416667  0.048113  0.153093    192.000000
 -0.250000  0.144338  0.153093     96.000000
  0.416667  0.721688  0.153093     96.000000
 -0.416667  0.240563  0.153093     96.000000
  0.083333  0.144338  0.255156     96.000000
  0.250000  0.240563  0.255156    192.000000
  0.416667  0.336788  0.255156    192.000000
 -0.416667 -0.144338  0.255156    192.000000
 -0.250000 -0.048113  0.255156    192.000000
 -0.083333  0.048113  0.255156     96.000000
  0.250000  0.433013  0.255156     96.000000
  0.416667  0.529238  0.255156    192.000000
 -0.416667  0.048113  0.255156    192.000000
 -0.250000  0.144338  0.255156     96.000000
  0.416667  0.721688  0.255156     96.000000
 -0.416667  0.240563  0.255156     96.000000
 


--------------------------------------------------------------------------------------------------------




 Dimension of arrays:
   k-points           NKPTS =     36   k-points in BZ     NKDIM =     36   number of bands    NBANDS=      8
   number of dos      NEDOS =    301   number of ions     NIONS =      2
   non local maximal  LDIM  =      4   non local SUM 2l+1 LMDIM =      8
   total plane-waves  NPLWV =  12800
   max r-space proj   IRMAX =      1   max aug-charges    IRDMAX=  15572
   dimension x,y,z NGX =    20 NGY =   20 NGZ =   32
   dimension x,y,z NGXF=    40 NGYF=   40 NGZF=   64
   support grid    NGXF=    40 NGYF=   40 NGZF=   64
   ions per type =               2
 NGX,Y,Z   is equivalent  to a cutoff of  12.31, 12.31, 12.07 a.u.
 NGXF,Y,Z  is equivalent  to a cutoff of  24.63, 24.63, 24.13 a.u.


 I would recommend the setting:
   dimension x,y,z NGX =    19 NGY =   19 NGZ =   31
 SYSTEM =  Si beta-tin                             
 POSCAR =  Si HCP                                  

 Startparameter for this run:
   NWRITE =      2    write-flag & timer
   PREC   = accura    normal or accurate (medium, high low for compatibility)
   ISTART =      0    job   : 0-new  1-cont  2-samecut
   ICHARG =      2    charge: 1-file 2-atom 10-const
   ISPIN  =      1    spin polarized calculation?
   LNONCOLLINEAR =      F non collinear calculations
   LSORBIT =      F    spin-orbit coupling
   INIWAV =      1    electr: 0-lowe 1-rand  2-diag
   LASPH  =      F    aspherical Exc in radial PAW
   METAGGA=      F    non-selfconsistent MetaGGA calc.

 Electronic Relaxation 1
   ENCUT  =  450.0 eV  33.07 Ry    5.75 a.u.   4.67  4.67  7.63*2*pi/ulx,y,z
   ENINI  =  450.0     initial cutoff
   ENAUG  =  322.1 eV  augmentation charge cutoff
   NELM   =     60;   NELMIN=  2; NELMDL= -5     # of ELM steps 
   EDIFF  = 0.1E-04   stopping-criterion for ELM
   LREAL  =      F    real-space projection
   NLSPLINE    = F    spline interpolate recip. space projectors
   LCOMPAT=      F    compatible to vasp.4.4
   GGA_COMPAT  = T    GGA compatible to vasp.4.4-vasp.4.6
   LMAXPAW     = -100 max onsite density
   LMAXMIX     =    2 max onsite mixed and CHGCAR
   VOSKOWN=      0    Vosko Wilk Nusair interpolation
   ROPT   =    0.00000
 Ionic relaxation
   EDIFFG = -.1E-01   stopping-criterion for IOM
   NSW    =    100    number of steps for IOM
   NBLOCK =      1;   KBLOCK =    100    inner block; outer block 
   IBRION =      2    ionic relax: 0-MD 1-quasi-New 2-CG
   NFREE  =      1    steps in history (QN), initial steepest desc. (CG)
   ISIF   =      4    stress and relaxation
   IWAVPR =     11    prediction:  0-non 1-charg 2-wave 3-comb
   ISYM   =      2    0-nonsym 1-usesym 2-fastsym
   LCORR  =      T    Harris-Foulkes like correction to forces

   POTIM  = 0.5000    time-step for ionic-motion
   TEIN   =    0.0    initial temperature
   TEBEG  =    0.0;   TEEND  =   0.0 temperature during run
   SMASS  =  -3.00    Nose mass-parameter (am)
   estimated Nose-frequenzy (Omega)   =  0.10E-29 period in steps =****** mass=  -0.167E-27a.u.
   SCALEE = 1.0000    scale energy and forces
   NPACO  =    256;   APACO  = 16.0  distance and # of slots for P.C.
   PSTRESS=    0.0 pullay stress

  Mass of Ions in am
   POMASS =  28.09
  Ionic Valenz
   ZVAL   =   4.00
  Atomic Wigner-Seitz radii
   RWIGS  =  -1.00
  virtual crystal weights 
   VCA    =   1.00
   NELECT =       8.0000    total number of electrons
   NUPDOWN=      -1.0000    fix difference up-down

 DOS related values:
   EMIN   =  10.00;   EMAX   =-10.00  energy-range for DOS
   EFERMI =   0.00
   ISMEAR =     0;   SIGMA  =   0.10  broadening in eV -4-tet -1-fermi 0-gaus

 Electronic relaxation 2 (details)
   IALGO  =     38    algorithm
   LDIAG  =      T    sub-space diagonalisation (order eigenvalues)
   LSUBROT=      F    optimize rotation matrix (better conditioning)
   TURBO    =      0    0=normal 1=particle mesh
   IRESTART =      0    0=no restart 2=restart with 2 vectors
   NREBOOT  =      0    no. of reboots
   NMIN     =      0    reboot dimension
   EREF     =   0.00    reference energy to select bands
   IMIX   =      4    mixing-type and parameters
     AMIX     =   0.40;   BMIX     =  1.00
     AMIX_MAG =   1.60;   BMIX_MAG =  1.00
     AMIN     =   0.10
     WC   =   100.;   INIMIX=   1;  MIXPRE=   1;  MAXMIX= -45

 Intra band minimization:
   WEIMIN = 0.0010     energy-eigenvalue tresh-hold
   EBREAK =  0.31E-06  absolut break condition
   DEPER  =   0.30     relativ break condition  

   TIME   =   0.40     timestep for ELM

  volume/ion in A,a.u.               =      13.92        93.92
  Fermi-wavevector in a.u.,A,eV,Ry     =   1.080363  2.041590 15.880503  1.167184
  Thomas-Fermi vector in A             =   2.216352
 
 Write flags
   LWAVE  =      T    write WAVECAR
   LCHARG =      T    write CHGCAR
   LVTOT  =      F    write LOCPOT, total local potential
   LVHAR  =      F    write LOCPOT, Hartree potential only
   LELF   =      F    write electronic localiz. function (ELF)
   LORBIT =      0    0 simple, 1 ext, 2 COOP (PROOUT)


 Dipole corrections
   LMONO  =      F    monopole corrections only (constant potential shift)
   LDIPOL =      F    correct potential (dipole corrections)
   IDIPOL =      0    1-x, 2-y, 3-z, 4-all directions 
   EPSILON=  1.0000000 bulk dielectric constant

 Exchange correlation treatment:
   GGA     =    --    GGA type
   LEXCH   =     8    internal setting for exchange type
   VOSKOWN=      0    Vosko Wilk Nusair interpolation
   LHFCALC =     F    Hartree Fock is set to
   LHFONE  =     F    Hartree Fock one center treatment
   AEXX    =    0.0000 exact exchange contribution

 Linear response parameters
   LEPSILON=     F    determine dielectric tensor
   LRPA    =     F    only Hartree local field effects (RPA)
   LNABLA  =     F    use nabla operator in PAW spheres
   LVEL    =     F    velocity operator in full k-point grid
   LINTERFAST=   F  fast interpolation
   KINTER  =     0    interpolate to denser k-point grid
   CSHIFT  =0.1000    complex shift for real part using Kramers Kronig
   OMEGAMAX=  -1.0    maximum frequency
   DEG_THRESHOLD= 0.2000000E-02 threshold for treating states as degnerate
   RTIME   =    0.100 relaxation time in fs

 Orbital magnetization related:
   ORBITALMAG=     F  switch on orbital magnetization
   LCHIMAG   =     F  perturbation theory with respect to B field
   DQ        =  0.001000  dq finite difference perturbation B field



--------------------------------------------------------------------------------------------------------


 conjugate gradient relaxation of ions
 charge density and potential will be updated during run
 non-spin polarized calculation
 Variant of blocked Davidson
 Davidson routine will perform the subspace rotation
 perform sub-space diagonalisation
    after iterative eigenvector-optimisation
 modified Broyden-mixing scheme, WC =      100.0
 initial mixing is a Kerker type mixing with AMIX =  0.4000 and BMIX =      1.0000
 Hartree-type preconditioning will be used
 using additional bands            4
 reciprocal scheme for non local part
 use partial core corrections
 calculate Harris-corrections to forces 
   (improved forces if not selfconsistent)
 use gradient corrections 
 use of overlap-Matrix (Vanderbilt PP)
 Gauss-broadening in eV      SIGMA  =   0.10


--------------------------------------------------------------------------------------------------------


  energy-cutoff  :      450.00
  volume of cell :       27.84
      direct lattice vectors                 reciprocal lattice vectors
     2.700000000  0.000000000  0.000000000     0.370370370  0.213833433  0.000000000
    -1.350000000  2.338268590  0.000000000     0.000000000  0.427666866  0.000000000
     0.000000000  0.000000000  4.409073000     0.000000000  0.000000000  0.226805045

  length of vectors
     2.700000000  2.700000000  4.409073000     0.427666866  0.427666866  0.226805045


 
 k-points in units of 2pi/SCALE and weight: K-Points                                
   0.08333333  0.14433757  0.05103114       0.019
   0.25000000  0.24056261  0.05103114       0.037
   0.41666667  0.33678766  0.05103114       0.037
  -0.41666667 -0.14433757  0.05103114       0.037
  -0.25000000 -0.04811252  0.05103114       0.037
  -0.08333333  0.04811252  0.05103114       0.019
   0.25000000  0.43301270  0.05103114       0.019
   0.41666667  0.52923775  0.05103114       0.037
  -0.41666667  0.04811252  0.05103114       0.037
  -0.25000000  0.14433757  0.05103114       0.019
   0.41666667  0.72168784  0.05103114       0.019
  -0.41666667  0.24056261  0.05103114       0.019
   0.08333333  0.14433757  0.15309341       0.019
   0.25000000  0.24056261  0.15309341       0.037
   0.41666667  0.33678766  0.15309341       0.037
  -0.41666667 -0.14433757  0.15309341       0.037
  -0.25000000 -0.04811252  0.15309341       0.037
  -0.08333333  0.04811252  0.15309341       0.019
   0.25000000  0.43301270  0.15309341       0.019
   0.41666667  0.52923775  0.15309341       0.037
  -0.41666667  0.04811252  0.15309341       0.037
  -0.25000000  0.14433757  0.15309341       0.019
   0.41666667  0.72168784  0.15309341       0.019
  -0.41666667  0.24056261  0.15309341       0.019
   0.08333333  0.14433757  0.25515568       0.019
   0.25000000  0.24056261  0.25515568       0.037
   0.41666667  0.33678766  0.25515568       0.037
  -0.41666667 -0.14433757  0.25515568       0.037
  -0.25000000 -0.04811252  0.25515568       0.037
  -0.08333333  0.04811252  0.25515568       0.019
   0.25000000  0.43301270  0.25515568       0.019
   0.41666667  0.52923775  0.25515568       0.037
  -0.41666667  0.04811252  0.25515568       0.037
  -0.25000000  0.14433757  0.25515568       0.019
   0.41666667  0.72168784  0.25515568       0.019
  -0.41666667  0.24056261  0.25515568       0.019
 
 k-points in reciprocal lattice and weights: K-Points                                
   0.08333333  0.08333333  0.08333333       0.019
   0.25000000  0.08333333  0.08333333       0.037
   0.41666667  0.08333333  0.08333333       0.037
  -0.41666667  0.08333333  0.08333333       0.037
  -0.25000000  0.08333333  0.08333333       0.037
  -0.08333333  0.08333333  0.08333333       0.019
   0.25000000  0.25000000  0.08333333       0.019
   0.41666667  0.25000000  0.08333333       0.037
  -0.41666667  0.25000000  0.08333333       0.037
  -0.25000000  0.25000000  0.08333333       0.019
   0.41666667  0.41666667  0.08333333       0.019
  -0.41666667  0.41666667  0.08333333       0.019
   0.08333333  0.08333333  0.25000000       0.019
   0.25000000  0.08333333  0.25000000       0.037
   0.41666667  0.08333333  0.25000000       0.037
  -0.41666667  0.08333333  0.25000000       0.037
  -0.25000000  0.08333333  0.25000000       0.037
  -0.08333333  0.08333333  0.25000000       0.019
   0.25000000  0.25000000  0.25000000       0.019
   0.41666667  0.25000000  0.25000000       0.037
  -0.41666667  0.25000000  0.25000000       0.037
  -0.25000000  0.25000000  0.25000000       0.019
   0.41666667  0.41666667  0.25000000       0.019
  -0.41666667  0.41666667  0.25000000       0.019
   0.08333333  0.08333333  0.41666667       0.019
   0.25000000  0.08333333  0.41666667       0.037
   0.41666667  0.08333333  0.41666667       0.037
  -0.41666667  0.08333333  0.41666667       0.037
  -0.25000000  0.08333333  0.41666667       0.037
  -0.08333333  0.08333333  0.41666667       0.019
   0.25000000  0.25000000  0.41666667       0.019
   0.41666667  0.25000000  0.41666667       0.037
  -0.41666667  0.25000000  0.41666667       0.037
  -0.25000000  0.25000000  0.41666667       0.019
   0.41666667  0.41666667  0.41666667       0.019
  -0.41666667  0.41666667  0.41666667       0.019
 
 position of ions in fractional coordinates (direct lattice) 
   0.00000000  0.00000000  0.00000000
   0.33333333  0.66666667  0.50000000
 
 position of ions in cartesian coordinates  (Angst):
   0.00000000  0.00000000  0.00000000
  -0.00000000  1.55884573  2.20453650
 


--------------------------------------------------------------------------------------------------------


 k-point  1 :   0.0833 0.0833 0.0833  plane waves:     604
 k-point  2 :   0.2500 0.0833 0.0833  plane waves:     606
 k-point  3 :   0.4167 0.0833 0.0833  plane waves:     605
 k-point  4 :  -0.4167 0.0833 0.0833  plane waves:     608
 k-point  5 :  -0.2500 0.0833 0.0833  plane waves:     604
 k-point  6 :  -0.0833 0.0833 0.0833  plane waves:     601
 k-point  7 :   0.2500 0.2500 0.0833  plane waves:     603
 k-point  8 :   0.4167 0.2500 0.0833  plane waves:     599
 k-point  9 :  -0.4167 0.2500 0.0833  plane waves:     611
 k-point 10 :  -0.2500 0.2500 0.0833  plane waves:     604
 k-point 11 :   0.4167 0.4167 0.0833  plane waves:     605
 k-point 12 :  -0.4167 0.4167 0.0833  plane waves:     602
 k-point 13 :   0.0833 0.0833 0.2500  plane waves:     611
 k-point 14 :   0.2500 0.0833 0.2500  plane waves:     606
 k-point 15 :   0.4167 0.0833 0.2500  plane waves:     601
 k-point 16 :  -0.4167 0.0833 0.2500  plane waves:     603
 k-point 17 :  -0.2500 0.0833 0.2500  plane waves:     605
 k-point 18 :  -0.0833 0.0833 0.2500  plane waves:     602
 k-point 19 :   0.2500 0.2500 0.2500  plane waves:     602
 k-point 20 :   0.4167 0.2500 0.2500  plane waves:     597
 k-point 21 :  -0.4167 0.2500 0.2500  plane waves:     603
 k-point 22 :  -0.2500 0.2500 0.2500  plane waves:     604
 k-point 23 :   0.4167 0.4167 0.2500  plane waves:     601
 k-point 24 :  -0.4167 0.4167 0.2500  plane waves:     607
 k-point 25 :   0.0833 0.0833 0.4167  plane waves:     611
 k-point 26 :   0.2500 0.0833 0.4167  plane waves:     603
 k-point 27 :   0.4167 0.0833 0.4167  plane waves:     599
 k-point 28 :  -0.4167 0.0833 0.4167  plane waves:     603
 k-point 29 :  -0.2500 0.0833 0.4167  plane waves:     606
 k-point 30 :  -0.0833 0.0833 0.4167  plane waves:     610
 k-point 31 :   0.2500 0.2500 0.4167  plane waves:     600
 k-point 32 :   0.4167 0.2500 0.4167  plane waves:     597
 k-point 33 :  -0.4167 0.2500 0.4167  plane waves:     597
 k-point 34 :  -0.2500 0.2500 0.4167  plane waves:     606
 k-point 35 :   0.4167 0.4167 0.4167  plane waves:     593
 k-point 36 :  -0.4167 0.4167 0.4167  plane waves:     606

 maximum and minimum number of plane-waves per node :       611      593

 maximum number of plane-waves:       611
 maximum index in each direction: 
   IXMAX=    5   IYMAX=    4   IZMAX=    7
   IXMIN=   -5   IYMIN=   -5   IZMIN=   -8

 WARNING: aliasing errors must be expected set NGX to  22 to avoid them
 NGY is ok and might be reduce to  20
 NGZ is ok and might be reduce to  32
 aliasing errors are usually negligible using standard VASP settings
 and one can safely disregard these warnings

 serial   3D FFT for wavefunctions
 parallel 3D FFT for charge:
    minimum data exchange during FFTs selected (reduces bandwidth)


 total amount of memory used by VASP on root node    34863. kBytes
========================================================================

   base      :      30000. kBytes
   nonl-proj :       1429. kBytes
   fftplans  :        933. kBytes
   grid      :       1772. kBytes
   one-center:          6. kBytes
   wavefun   :        723. kBytes
 
     INWAV:  cpu time    0.0000: real time    0.0000
 Broyden mixing: mesh for mixing (old mesh)
   NGX =  9   NGY =  9   NGZ = 15
  (NGX  = 40   NGY  = 40   NGZ  = 64)
  gives a total of   1215 points

 initial charge density was supplied:
 charge density of overlapping atoms calculated
 number of electron       8.0000000 magnetization 
 keeping initial charge density in first step


--------------------------------------------------------------------------------------------------------


 Maximum index for augmentation-charges         3736 (set IRDMAX)


--------------------------------------------------------------------------------------------------------


 First call to EWALD:  gamma=   0.585
 Maximum number of real-space cells 3x 3x 2
 Maximum number of reciprocal cells 3x 3x 4

 FEWALD executed in parallel
    FEWALD:  cpu time    0.0030: real time    0.0010


----------------------------------------- Iteration    1(   1)  ---------------------------------------


    POTLOK:  cpu time    0.0380: real time    0.0260
    SETDIJ:  cpu time    0.0020: real time    0.0027
     EDDAV:  cpu time    1.2748: real time    0.7913
       DOS:  cpu time    0.0020: real time    0.0011
    --------------------------------------------
      LOOP:  cpu time    1.3218: real time    0.8251

 eigenvalue-minimisations  :   576
 total energy-change (2. order) : 0.2856091E+01  (-0.3137325E+03)
 number of electron       8.0000000 magnetization 
 augmentation part        8.0000000 magnetization 

 Free energy of the ion-electron system (eV)
  ---------------------------------------------------
  alpha Z        PSCENC =         4.83736710
  Ewald energy   TEWEN  =      -276.63469784
  -Hartree energ DENC   =        -1.04748694
  -exchange      EXHF   =         0.00000000
  -V(xc)+E(xc)   XCENC  =       -17.40352337
  PAW double counting   =       176.24759923     -141.06103558
  entropy T*S    EENTRO =        -0.00509504
  eigenvalues    EBANDS =        51.79103571
  atomic energy  EATOM  =       206.13192747
  Solvation  Ediel_sol  =         0.00000000
  ---------------------------------------------------
  free energy    TOTEN  =         2.85609074 eV

  energy without entropy =        2.86118578  energy(sigma->0) =        2.85863826


--------------------------------------------------------------------------------------------------------




----------------------------------------- Iteration    1(   2)  ---------------------------------------


     EDDAV:  cpu time    2.3366: real time    1.4474
       DOS:  cpu time    0.0020: real time    0.0009
    --------------------------------------------
      LOOP:  cpu time    2.3416: real time    1.4508

 eigenvalue-minimisations  :   872
 total energy-change (2. order) :-0.1261545E+02  (-0.1196694E+02)
 number of electron       8.0000000 magnetization 
 augmentation part        8.0000000 magnetization 

 Free energy of the ion-electron system (eV)
  ---------------------------------------------------
  alpha Z        PSCENC =         4.83736710
  Ewald energy   TEWEN  =      -276.63469784
  -Hartree energ DENC   =        -1.04748694
  -exchange      EXHF   =         0.00000000
  -V(xc)+E(xc)   XCENC  =       -17.40352337
  PAW double counting   =       176.24759923     -141.06103558
  entropy T*S    EENTRO =        -0.00154767
  eigenvalues    EBANDS =        39.17203337
  atomic energy  EATOM  =       206.13192747
  Solvation  Ediel_sol  =         0.00000000
  ---------------------------------------------------
  free energy    TOTEN  =        -9.75936423 eV

  energy without entropy =       -9.75781656  energy(sigma->0) =       -9.75859039


--------------------------------------------------------------------------------------------------------




----------------------------------------- Iteration    1(   3)  ---------------------------------------


     EDDAV:  cpu time    1.6977: real time    1.0966
       DOS:  cpu time    0.0020: real time    0.0011
    --------------------------------------------
      LOOP:  cpu time    1.7017: real time    1.0998

 eigenvalue-minimisations  :   792
 total energy-change (2. order) :-0.1290004E+00  (-0.1289840E+00)
 number of electron       8.0000000 magnetization 
 augmentation part        8.0000000 magnetization 

 Free energy of the ion-electron system (eV)
  ---------------------------------------------------
  alpha Z        PSCENC =         4.83736710
  Ewald energy   TEWEN  =      -276.63469784
  -Hartree energ DENC   =        -1.04748694
  -exchange      EXHF   =         0.00000000
  -V(xc)+E(xc)   XCENC  =       -17.40352337
  PAW double counting   =       176.24759923     -141.06103558
  entropy T*S    EENTRO =        -0.00160688
  eigenvalues    EBANDS =        39.04309218
  atomic energy  EATOM  =       206.13192747
  Solvation  Ediel_sol  =         0.00000000
  ---------------------------------------------------
  free energy    TOTEN  =        -9.88836463 eV

  energy without entropy =       -9.88675775  energy(sigma->0) =       -9.88756119


--------------------------------------------------------------------------------------------------------




----------------------------------------- Iteration    1(   4)  ---------------------------------------


     EDDAV:  cpu time    2.1167: real time    1.3795
       DOS:  cpu time    0.0020: real time    0.0008
    --------------------------------------------
      LOOP:  cpu time    2.1247: real time    1.3829

 eigenvalue-minimisations  :   840
 total energy-change (2. order) :-0.2787437E-03  (-0.2787418E-03)
 number of electron       8.0000000 magnetization 
 augmentation part        8.0000000 magnetization 

 Free energy of the ion-electron system (eV)
  ---------------------------------------------------
  alpha Z        PSCENC =         4.83736710
  Ewald energy   TEWEN  =      -276.63469784
  -Hartree energ DENC   =        -1.04748694
  -exchange      EXHF   =         0.00000000
  -V(xc)+E(xc)   XCENC  =       -17.40352337
  PAW double counting   =       176.24759923     -141.06103558
  entropy T*S    EENTRO =        -0.00160824
  eigenvalues    EBANDS =        39.04281480
  atomic energy  EATOM  =       206.13192747
  Solvation  Ediel_sol  =         0.00000000
  ---------------------------------------------------
  free energy    TOTEN  =        -9.88864337 eV

  energy without entropy =       -9.88703513  energy(sigma->0) =       -9.88783925


--------------------------------------------------------------------------------------------------------




----------------------------------------- Iteration    1(   5)  ---------------------------------------


     EDDAV:  cpu time    1.7427: real time    1.0770
       DOS:  cpu time    0.0100: real time    0.0048
    CHARGE:  cpu time    0.0200: real time    0.0132
    MIXING:  cpu time    0.0010: real time    0.0007
    --------------------------------------------
      LOOP:  cpu time    1.7767: real time    1.0986

 eigenvalue-minimisations  :   800
 total energy-change (2. order) :-0.3806319E-06  (-0.3812814E-06)
 number of electron       8.0000000 magnetization 
 augmentation part       -0.4755727 magnetization 

 Broyden mixing:
  rms(total) = 0.40344E+00    rms(broyden)= 0.40344E+00
  rms(prec ) = 0.45887E+00
  weight for this iteration     100.00

 Free energy of the ion-electron system (eV)
  ---------------------------------------------------
  alpha Z        PSCENC =         4.83736710
  Ewald energy   TEWEN  =      -276.63469784
  -Hartree energ DENC   =        -1.04748694
  -exchange      EXHF   =         0.00000000
  -V(xc)+E(xc)   XCENC  =       -17.40352337
  PAW double counting   =       176.24759923     -141.06103558
  entropy T*S    EENTRO =        -0.00160826
  eigenvalues    EBANDS =        39.04281444
  atomic energy  EATOM  =       206.13192747
  Solvation  Ediel_sol  =         0.00000000
  ---------------------------------------------------
  free energy    TOTEN  =        -9.88864375 eV

  energy without entropy =       -9.88703549  energy(sigma->0) =       -9.88783962


--------------------------------------------------------------------------------------------------------




----------------------------------------- Iteration    1(   6)  ---------------------------------------


    POTLOK:  cpu time    0.0360: real time    0.0214
    SETDIJ:  cpu time    0.0050: real time    0.0030
     EDDAV:  cpu time    1.7767: real time    1.1103
       DOS:  cpu time    0.0010: real time    0.0007
    CHARGE:  cpu time    0.0370: real time    0.0205
    MIXING:  cpu time    0.0020: real time    0.0009
    --------------------------------------------
      LOOP:  cpu time    1.8627: real time    1.1593

 eigenvalue-minimisations  :   768
 total energy-change (2. order) : 0.2712312E-01  (-0.8266419E-03)
 number of electron       8.0000000 magnetization 
 augmentation part       -0.4798695 magnetization 

 Broyden mixing:
  rms(total) = 0.22258E+00    rms(broyden)= 0.22258E+00
  rms(prec ) = 0.25809E+00
  weight for this iteration     100.00

 eigenvalues of (default mixing * dielectric matrix)
  average eigenvalue GAMMA=   2.2203
  2.2203

 Free energy of the ion-electron system (eV)
  ---------------------------------------------------
  alpha Z        PSCENC =         4.83736710
  Ewald energy   TEWEN  =      -276.63469784
  -Hartree energ DENC   =        -0.90951440
  -exchange      EXHF   =         0.00000000
  -V(xc)+E(xc)   XCENC  =       -17.35771441
  PAW double counting   =       349.98435108     -314.80182699
  entropy T*S    EENTRO =        -0.00161244
  eigenvalues    EBANDS =        38.89019979
  atomic energy  EATOM  =       206.13192747
  Solvation  Ediel_sol  =         0.00000000
  ---------------------------------------------------
  free energy    TOTEN  =        -9.86152063 eV

  energy without entropy =       -9.85990820  energy(sigma->0) =       -9.86071442


--------------------------------------------------------------------------------------------------------




----------------------------------------- Iteration    1(   7)  ---------------------------------------


    POTLOK:  cpu time    0.0520: real time    0.0295
    SETDIJ:  cpu time    0.0030: real time    0.0017
     EDDAV:  cpu time    1.7127: real time    1.1089
       DOS:  cpu time    0.0020: real time    0.0010
    CHARGE:  cpu time    0.0320: real time    0.0190
    MIXING:  cpu time    0.0020: real time    0.0008
    --------------------------------------------
      LOOP:  cpu time    1.8137: real time    1.1687

 eigenvalue-minimisations  :   752
 total energy-change (2. order) : 0.1545221E-01  (-0.1568967E-02)
 number of electron       7.9999999 magnetization 
 augmentation part       -0.4859126 magnetization 

 Broyden mixing:
  rms(total) = 0.15014E-01    rms(broyden)= 0.15014E-01
  rms(prec ) = 0.19106E-01
  weight for this iteration     100.00

 eigenvalues of (default mixing * dielectric matrix)
  average eigenvalue GAMMA=   2.4133
  2.4133  2.4133

 Free energy of the ion-electron system (eV)
  ---------------------------------------------------
  alpha Z        PSCENC =         4.83736710
  Ewald energy   TEWEN  =      -276.63469784
  -Hartree energ DENC   =        -0.77467118
  -exchange      EXHF   =         0.00000000
  -V(xc)+E(xc)   XCENC  =       -17.28519914
  PAW double counting   =       672.05839035     -636.88934805
  entropy T*S    EENTRO =        -0.00162259
  eigenvalues    EBANDS =        38.71178545
  atomic energy  EATOM  =       206.13192747
  Solvation  Ediel_sol  =         0.00000000
  ---------------------------------------------------
  free energy    TOTEN  =        -9.84606842 eV

  energy without entropy =       -9.84444584  energy(sigma->0) =       -9.84525713


--------------------------------------------------------------------------------------------------------




----------------------------------------- Iteration    1(   8)  ---------------------------------------


    POTLOK:  cpu time    0.0480: real time    0.0290
    SETDIJ:  cpu time    0.0020: real time    0.0019
     EDDAV:  cpu time    2.0627: real time    1.2386
       DOS:  cpu time    0.0010: real time    0.0007
    CHARGE:  cpu time    0.0270: real time    0.0165
    MIXING:  cpu time    0.0020: real time    0.0007
    --------------------------------------------
      LOOP:  cpu time    2.1447: real time    1.2896

 eigenvalue-minimisations  :   864
 total energy-change (2. order) : 0.1293909E-03  (-0.1265180E-04)
 number of electron       7.9999999 magnetization 
 augmentation part       -0.4863256 magnetization 

 Broyden mixing:
  rms(total) = 0.24821E-02    rms(broyden)= 0.24821E-02
  rms(prec ) = 0.29151E-02
  weight for this iteration     100.00

 eigenvalues of (default mixing * dielectric matrix)
  average eigenvalue GAMMA=   2.0120
  0.9226  2.7218  2.3918

 Free energy of the ion-electron system (eV)
  ---------------------------------------------------
  alpha Z        PSCENC =         4.83736710
  Ewald energy   TEWEN  =      -276.63469784
  -Hartree energ DENC   =        -0.77395407
  -exchange      EXHF   =         0.00000000
  -V(xc)+E(xc)   XCENC  =       -17.27424710
  PAW double counting   =       653.89566790     -618.74033354
  entropy T*S    EENTRO =        -0.00162388
  eigenvalues    EBANDS =        38.71395492
  atomic energy  EATOM  =       206.13192747
  Solvation  Ediel_sol  =         0.00000000
  ---------------------------------------------------
  free energy    TOTEN  =        -9.84593903 eV

  energy without entropy =       -9.84431516  energy(sigma->0) =       -9.84512710


--------------------------------------------------------------------------------------------------------




----------------------------------------- Iteration    1(   9)  ---------------------------------------


    POTLOK:  cpu time    0.0760: real time    0.0467
    SETDIJ:  cpu time    0.0160: real time    0.0091
     EDDAV:  cpu time    1.0998: real time    0.6621
       DOS:  cpu time    0.0020: real time    0.0008
    --------------------------------------------
      LOOP:  cpu time    1.1978: real time    0.7213

 eigenvalue-minimisations  :   448
 total energy-change (2. order) :-0.1014972E-05  (-0.1817335E-06)
 number of electron       7.9999999 magnetization 
 augmentation part       -0.4863256 magnetization 

 Free energy of the ion-electron system (eV)
  ---------------------------------------------------
  alpha Z        PSCENC =         4.83736710
  Ewald energy   TEWEN  =      -276.63469784
  -Hartree energ DENC   =        -0.77400891
  -exchange      EXHF   =         0.00000000
  -V(xc)+E(xc)   XCENC  =       -17.27267697
  PAW double counting   =       650.05232942     -614.89875289
  entropy T*S    EENTRO =        -0.00162408
  eigenvalues    EBANDS =        38.71419666
  atomic energy  EATOM  =       206.13192747
  Solvation  Ediel_sol  =         0.00000000
  ---------------------------------------------------
  free energy    TOTEN  =        -9.84594005 eV

  energy without entropy =       -9.84431597  energy(sigma->0) =       -9.84512801


--------------------------------------------------------------------------------------------------------




 average (electrostatic) potential at core
  the test charge radii are     0.9892
  (the norm of the test charge is              1.0000)
       1 -79.3932       2 -79.3932
 
 
 
 E-fermi :  10.6419     XC(G=0): -11.3542     alpha+bet :-17.2328


 k-point     1 :       0.0833    0.0833    0.0833
  band No.  band energies     occupation 
      1      -3.5252      2.00000
      2       2.5811      2.00000
      3       5.0305      2.00000
      4      15.0838      0.00000
      5      15.5859      0.00000
      6      20.2415      0.00000
      7      20.5948      0.00000
      8      20.7338      0.00000

 k-point     2 :       0.2500    0.0833    0.0833
  band No.  band energies     occupation 
      1      -1.6943      2.00000
      2       4.3608      2.00000
      3       6.7639      2.00000
      4       9.0087      2.00000
      5      13.0620      0.00000
      6      14.7435      0.00000
      7      16.8779      0.00000
      8      18.6586      0.00000

 k-point     3 :       0.4167    0.0833    0.0833
  band No.  band energies     occupation 
      1       1.5290      2.00000
      2       3.7690      2.00000
      3       7.4921      2.00000
      4       9.2908      2.00000
      5      10.2459      2.00000
      6      12.0127      0.00000
      7      12.1763      0.00000
      8      17.6669      0.00000

 k-point     4 :      -0.4167    0.0833    0.0833
  band No.  band energies     occupation 
      1      -0.2446      2.00000
      2       5.7292      2.00000
      3       6.2542      2.00000
      4       8.1370      2.00000
      5      12.0665      0.00000
      6      12.4362      0.00000
      7      14.3743      0.00000
      8      17.9930      0.00000

 k-point     5 :      -0.2500    0.0833    0.0833
  band No.  band energies     occupation 
      1      -2.7906      2.00000
      2       3.2962      2.00000
      3       5.7288      2.00000
      4      12.0479      0.00000
      5      14.0750      0.00000
      6      17.5907      0.00000
      7      19.1438      0.00000
      8      19.7684      0.00000

 k-point     6 :      -0.0833    0.0833    0.0833
  band No.  band energies     occupation 
      1      -3.8936      2.00000
      2       2.2221      2.00000
      3       4.6798      2.00000
      4      16.8460      0.00000
      5      17.9803      0.00000
      6      19.8887      0.00000
      7      21.3179      0.00000
      8      21.7667      0.00000

 k-point     7 :       0.2500    0.2500    0.0833
  band No.  band energies     occupation 
      1       0.8355      2.00000
      2       6.6751      2.00000
      3       7.1009      2.00000
      4       7.6015      2.00000
      5       9.1494      2.00000
      6      12.7500      0.00000
      7      13.3179      0.00000
      8      15.0257      0.00000

 k-point     8 :       0.4167    0.2500    0.0833
  band No.  band energies     occupation 
      1       2.5984      2.00000
      2       4.7874      2.00000
      3       6.9801      2.00000
      4       8.5380      2.00000
      5      10.3067      2.00000
      6      11.1376      0.00000
      7      12.3920      0.00000
      8      13.5994      0.00000

 k-point     9 :      -0.4167    0.2500    0.0833
  band No.  band energies     occupation 
      1      -0.6048      2.00000
      2       5.4129      2.00000
      3       7.7123      2.00000
      4       8.0307      2.00000
      5      10.0942      2.00000
      6      13.7172      0.00000
      7      15.3626      0.00000
      8      16.4178      0.00000

 k-point    10 :      -0.2500    0.2500    0.0833
  band No.  band energies     occupation 
      1      -2.4244      2.00000
      2       3.6522      2.00000
      3       6.0757      2.00000
      4      10.3799      1.99979
      5      15.4846      0.00000
      6      16.0477      0.00000
      7      17.7472      0.00000
      8      18.2243      0.00000

 k-point    11 :       0.4167    0.4167    0.0833
  band No.  band energies     occupation 
      1       2.6882      2.00000
      2       3.3223      2.00000
      3       8.6133      2.00000
      4       9.0711      2.00000
      5       9.3947      2.00000
      6      11.0643      0.00000
      7      11.6837      0.00000
      8      15.2890      0.00000

 k-point    12 :      -0.4167    0.4167    0.0833
  band No.  band energies     occupation 
      1       0.4718      2.00000
      2       4.8041      2.00000
      3       6.4781      2.00000
      4       8.7576      2.00000
      5      10.8154      0.01411
      6      13.0916      0.00000
      7      14.2044      0.00000
      8      16.4448      0.00000

 k-point    13 :       0.0833    0.0833    0.2500
  band No.  band energies     occupation 
      1      -3.1111      2.00000
      2       0.5757      2.00000
      3       7.7704      2.00000
      4      15.4512      0.00000
      5      15.8459      0.00000
      6      18.0075      0.00000
      7      18.6713      0.00000
      8      19.3010      0.00000

 k-point    14 :       0.2500    0.0833    0.2500
  band No.  band energies     occupation 
      1      -1.2835      2.00000
      2       2.3722      2.00000
      3       9.2742      2.00000
      4       9.5575      2.00000
      5      12.9152      0.00000
      6      13.4480      0.00000
      7      16.7757      0.00000
      8      18.6252      0.00000

 k-point    15 :       0.4167    0.0833    0.2500
  band No.  band energies     occupation 
      1       1.9340      2.00000
      2       4.1616      2.00000
      3       5.5497      2.00000
      4       7.7000      2.00000
      5      12.3682      0.00000
      6      12.6400      0.00000
      7      14.4963      0.00000
      8      16.1602      0.00000

 k-point    16 :      -0.4167    0.0833    0.2500
  band No.  band energies     occupation 
      1       0.1635      2.00000
      2       3.7913      2.00000
      3       6.6138      2.00000
      4       9.9007      2.00000
      5      11.1248      0.00000
      6      12.7737      0.00000
      7      15.9406      0.00000
      8      17.1809      0.00000

 k-point    17 :      -0.2500    0.0833    0.2500
  band No.  band energies     occupation 
      1      -2.3778      2.00000
      2       1.2968      2.00000
      3       8.4507      2.00000
      4      12.4192      0.00000
      5      14.4194      0.00000
      6      15.8414      0.00000
      7      17.7985      0.00000
      8      18.4391      0.00000

 k-point    18 :      -0.0833    0.0833    0.2500
  band No.  band energies     occupation 
      1      -3.4788      2.00000
      2       0.2141      2.00000
      3       7.4267      2.00000
      4      17.0275      0.00000
      5      17.6643      0.00000
      6      18.3309      0.00000
      7      20.2402      0.00000
      8      21.0364      0.00000

 k-point    19 :       0.2500    0.2500    0.2500
  band No.  band energies     occupation 
      1       1.2414      2.00000
      2       4.8445      2.00000
      3       7.3691      2.00000
      4       7.9857      2.00000
      5      10.8699      0.00126
      6      10.9530      0.00001
      7      12.5145      0.00000
      8      17.3939      0.00000

 k-point    20 :       0.4167    0.2500    0.2500
  band No.  band energies     occupation 
      1       3.0008      2.00000
      2       5.1755      2.00000
      3       6.5865      2.00000
      4       7.3957      2.00000
      5       8.7183      2.00000
      6      10.7617      0.09012
      7      13.7292      0.00000
      8      15.7592      0.00000

 k-point    21 :      -0.4167    0.2500    0.2500
  band No.  band energies     occupation 
      1      -0.1961      2.00000
      2       3.4395      2.00000
      3       8.3189      2.00000
      4      10.3319      1.99999
      5      10.4980      1.95812
      6      11.9652      0.00000
      7      14.0169      0.00000
      8      18.2898      0.00000

 k-point    22 :      -0.2500    0.2500    0.2500
  band No.  band energies     occupation 
      1      -2.0123      2.00000
      2       1.6561      2.00000
      3       8.7821      2.00000
      4      10.7624      0.08829
      5      14.2521      0.00000
      6      15.8434      0.00000
      7      17.6715      0.00000
      8      19.0014      0.00000

 k-point    23 :       0.4167    0.4167    0.2500
  band No.  band energies     occupation 
      1       3.0927      2.00000
      2       3.7176      2.00000
      3       6.6965      2.00000
      4       7.2491      2.00000
      5       9.7702      2.00000
      6      12.8470      0.00000
      7      13.6630      0.00000
      8      14.8760      0.00000

 k-point    24 :      -0.4167    0.4167    0.2500
  band No.  band energies     occupation 
      1       0.8786      2.00000
      2       4.4795      2.00000
      3       5.2339      2.00000
      4       8.6921      2.00000
      5      11.6509      0.00000
      6      14.5651      0.00000
      7      15.5717      0.00000
      8      16.7588      0.00000

 k-point    25 :       0.0833    0.0833    0.4167
  band No.  band energies     occupation 
      1      -2.2854      2.00000
      2      -1.0535      2.00000
      3      10.8495      0.00332
      4      14.1516      0.00000
      5      16.1816      0.00000
      6      16.9147      0.00000
      7      17.2646      0.00000
      8      17.9214      0.00000

 k-point    26 :       0.2500    0.0833    0.4167
  band No.  band energies     occupation 
      1      -0.4647      2.00000
      2       0.7569      2.00000
      3      10.1345      2.00000
      4      11.1662      0.00000
      5      12.6957      0.00000
      6      14.0889      0.00000
      7      15.4287      0.00000
      8      16.0940      0.00000

 k-point    27 :       0.4167    0.0833    0.4167
  band No.  band energies     occupation 
      1       2.7405      2.00000
      2       3.9355      2.00000
      3       4.9801      2.00000
      4       6.1528      2.00000
      5      13.1578      0.00000
      6      14.1403      0.00000
      7      15.6657      0.00000
      8      17.3506      0.00000

 k-point    28 :      -0.4167    0.0833    0.4167
  band No.  band energies     occupation 
      1       0.9768      2.00000
      2       2.1896      2.00000
      3       7.3942      2.00000
      4       8.5498      2.00000
      5      13.4606      0.00000
      6      13.7488      0.00000
      7      14.9134      0.00000
      8      17.1151      0.00000

 k-point    29 :      -0.2500    0.0833    0.4167
  band No.  band energies     occupation 
      1      -1.5548      2.00000
      2      -0.3271      2.00000
      3      11.4675      0.00000
      4      13.1024      0.00000
      5      14.3921      0.00000
      6      14.6240      0.00000
      7      15.6946      0.00000
      8      16.4078      0.00000

 k-point    30 :      -0.0833    0.0833    0.4167
  band No.  band energies     occupation 
      1      -2.6517      2.00000
      2      -1.4179      2.00000
      3      10.5225      1.90865
      4      13.9005      0.00000
      5      17.9729      0.00000
      6      19.0145      0.00000
      7      19.0257      0.00000
      8      20.0396      0.00000

 k-point    31 :       0.2500    0.2500    0.4167
  band No.  band energies     occupation 
      1       2.0503      2.00000
      2       3.2559      2.00000
      3       8.1460      2.00000
      4       8.7321      2.00000
      5       9.3465      2.00000
      6       9.8753      2.00000
      7      15.0725      0.00000
      8      17.9498      0.00000

 k-point    32 :       0.4167    0.2500    0.4167
  band No.  band energies     occupation 
      1       3.8015      2.00000
      2       4.9821      2.00000
      3       6.0046      2.00000
      4       7.1594      2.00000
      5       8.1774      2.00000
      6       9.3141      2.00000
      7      16.5336      0.00000
      8      18.1121      0.00000

 k-point    33 :      -0.4167    0.2500    0.4167
  band No.  band energies     occupation 
      1       0.6186      2.00000
      2       1.8337      2.00000
      3       9.0940      2.00000
      4      10.2174      2.00000
      5      11.2215      0.00000
      6      12.1903      0.00000
      7      13.9508      0.00000
      8      16.9545      0.00000

 k-point    34 :      -0.2500    0.2500    0.4167
  band No.  band energies     occupation 
      1      -1.1907      2.00000
      2       0.0350      2.00000
      3      11.4392      0.00000
      4      11.7108      0.00000
      5      12.9359      0.00000
      6      15.2402      0.00000
      7      16.5586      0.00000
      8      17.6215      0.00000

 k-point    35 :       0.4167    0.4167    0.4167
  band No.  band energies     occupation 
      1       3.8957      2.00000
      2       4.4898      2.00000
      3       5.1321      2.00000
      4       5.7036      2.00000
      5      10.5294      1.88812
      6      11.6375      0.00000
      7      16.4912      0.00000
      8      17.3099      0.00000

 k-point    36 :      -0.4167    0.4167    0.4167
  band No.  band energies     occupation 
      1       1.6892      2.00000
      2       2.8971      2.00000
      3       6.0075      2.00000
      4       7.1788      2.00000
      5      14.5342      0.00000
      6      15.2848      0.00000
      7      16.3575      0.00000
      8      16.8414      0.00000


--------------------------------------------------------------------------------------------------------


 soft charge-density along one line, spin component           1
         0         1         2         3         4         5         6         7         8         9
 total charge-density along one line
 
 pseudopotential strength for first ion, spin component:           1
 17.910  24.986   0.000  -0.000  -0.000   0.000  -0.000  -0.000
 24.986  34.861   0.000  -0.000  -0.000   0.000  -0.000  -0.000
  0.000   0.000   4.088  -0.000   0.000   7.616  -0.000   0.000
 -0.000  -0.000  -0.000   4.088   0.000  -0.000   7.616   0.000
 -0.000  -0.000   0.000   0.000   4.088   0.000   0.000   7.616
  0.000   0.000   7.616  -0.000   0.000  14.197  -0.000   0.000
 -0.000  -0.000  -0.000   7.616   0.000  -0.000  14.197   0.000
 -0.000  -0.000   0.000   0.000   7.616   0.000   0.000  14.197
 total augmentation occupancy for first ion, spin component:           1
  5.133  -2.171   0.000   0.000   0.000   0.000   0.000   0.000
 -2.171   1.350   0.000   0.000   0.000   0.000   0.000   0.000
  0.000   0.000   2.443   0.000   0.000  -0.586   0.000   0.000
  0.000   0.000   0.000   2.439  -0.000   0.000  -0.586   0.000
  0.000   0.000  -0.000  -0.000   2.443   0.000  -0.000  -0.586
  0.000   0.000  -0.586   0.000   0.000   0.156   0.000   0.000
  0.000   0.000   0.000  -0.586   0.000  -0.000   0.156  -0.000
  0.000   0.000   0.000   0.000  -0.586  -0.000   0.000   0.156


------------------------ aborting loop because EDIFF is reached ----------------------------------------


    CHARGE:  cpu time    0.0230: real time    0.0133
    FORLOC:  cpu time    0.0000: real time    0.0007
    FORNL :  cpu time    0.0400: real time    0.0253
    STRESS:  cpu time    0.2930: real time    0.1762
    FORCOR:  cpu time    0.0550: real time    0.0326
    FORHAR:  cpu time    0.0200: real time    0.0123
    MIXING:  cpu time    0.0030: real time    0.0010
    OFIELD:  cpu time    0.0000: real time    0.0000

  FORCE on cell =-STRESS in cart. coord.  units (eV):
  Direction    XX          YY          ZZ          XY          YZ          ZX
  --------------------------------------------------------------------------------------
  Alpha Z     4.83737     4.83737     4.83737
  Ewald     -92.27473   -92.27473   -92.08542    -0.00000    -0.00000    -0.00000
  Hartree     0.25110     0.25110     0.27172    -0.00000    -0.00000    -0.00000
  E(xc)     -25.62586   -25.62586   -25.64822     0.00000    -0.00000    -0.00000
  Local      -9.13060    -9.13060    -9.43546    -0.00001    -0.00000     0.00000
  n-local    74.85111    77.85482    76.83102    -0.93999     0.06321    -0.60429
  augment   -12.39213   -12.39212   -12.37661     0.00001     0.00000     0.00000
  Kinetic    73.80483    43.45717    57.63922    10.39741    -0.03629     0.01615
  Fock        0.00000     0.00000     0.00000     0.00000     0.00000     0.00000
  -------------------------------------------------------------------------------------
  Total       0.64912     0.64912     0.03360     0.00000     0.00000     0.00000
  in kB      37.36200    37.36200     1.93412     0.00000     0.00000     0.00000
  external pressure =       25.55 kB  Pullay stress =        0.00 kB


 VOLUME and BASIS-vectors are now :
 -----------------------------------------------------------------------------
  energy-cutoff  :      450.00
  volume of cell :       27.84
      direct lattice vectors                 reciprocal lattice vectors
     2.700000000  0.000000000  0.000000000     0.370370370  0.213833433  0.000000000
    -1.350000000  2.338268590  0.000000000     0.000000000  0.427666866  0.000000000
     0.000000000  0.000000000  4.409073000     0.000000000  0.000000000  0.226805045

  length of vectors
     2.700000000  2.700000000  4.409073000     0.427666866  0.427666866  0.226805045


 FORCES acting on ions
    electron-ion (+dipol)            ewald-force                    non-local-force                 convergence-correction
 -----------------------------------------------------------------------------------------------
   0.441E-08 -.254E-08 0.344E-14   -.949E-13 0.735E-13 -.414E-14   0.347E-16 -.867E-18 0.000E+00   0.172E-09 -.995E-10 0.135E-14
   0.164E-07 -.949E-08 -.189E-13   0.970E-13 -.740E-13 0.414E-14   -.243E-16 -.867E-18 0.000E+00   -.172E-09 0.995E-10 -.132E-14
 -----------------------------------------------------------------------------------------------
   0.208E-07 -.120E-07 -.155E-13   0.217E-14 -.471E-15 0.000E+00   0.104E-16 -.173E-17 0.000E+00   0.522E-14 -.316E-14 0.232E-16
 
 
 POSITION                                       TOTAL-FORCE (eV/Angst)
 -----------------------------------------------------------------------------------
      0.00000      0.00000      0.00000        -0.000000     -0.000000      0.000000
     -0.00000      1.55885      2.20454         0.000000      0.000000      0.000000
 -----------------------------------------------------------------------------------
    total drift:                                0.000000     -0.000000     -0.000000


--------------------------------------------------------------------------------------------------------



  FREE ENERGIE OF THE ION-ELECTRON SYSTEM (eV)
  ---------------------------------------------------
  free  energy   TOTEN  =        -9.84594005 eV

  energy  without entropy=       -9.84431597  energy(sigma->0) =       -9.84512801
 


--------------------------------------------------------------------------------------------------------


    POTLOK:  cpu time    0.0630: real time    0.0381


--------------------------------------------------------------------------------------------------------




--------------------------------------------------------------------------------------------------------


    WAVPRE:  cpu time    0.0030: real time    0.0031
 FEWALD executed in parallel
    FEWALD:  cpu time    0.0000: real time    0.0002
    GENKIN:  cpu time    0.0080: real time    0.0090
    ORTHCH:  cpu time    0.4949: real time    0.2960
     LOOP+:  cpu time   17.4343: real time   10.9456


----------------------------------------- Iteration    2(   1)  ---------------------------------------


    POTLOK:  cpu time    0.0450: real time    0.0278
    SETDIJ:  cpu time    0.0040: real time    0.0018
     EDDAV:  cpu time    1.7967: real time    1.1082
       DOS:  cpu time    0.0020: real time    0.0011
    CHARGE:  cpu time    0.0290: real time    0.0180
    MIXING:  cpu time    0.0020: real time    0.0007
    --------------------------------------------
      LOOP:  cpu time    1.8817: real time    1.1591

 eigenvalue-minimisations  :   840
 total energy-change (2. order) :-0.7411422E-02  (-0.1110385E-01)
 number of electron       8.0000000 magnetization 
 augmentation part       -0.4867800 magnetization 

 Broyden mixing:
  rms(total) = 0.20148E-01    rms(broyden)= 0.20147E-01
  rms(prec ) = 0.47483E-01
  weight for this iteration     100.00

 Free energy of the ion-electron system (eV)
  ---------------------------------------------------
  alpha Z        PSCENC =         4.83736710
  Ewald energy   TEWEN  =      -276.62437429
  -Hartree energ DENC   =        -0.77406859
  -exchange      EXHF   =         0.00000000
  -V(xc)+E(xc)   XCENC  =       -17.27306010
  PAW double counting   =       650.91962855     -615.76525405
  entropy T*S    EENTRO =        -0.00270258
  eigenvalues    EBANDS =        38.69718603
  atomic energy  EATOM  =       206.13192747
  Solvation  Ediel_sol  =         0.00000000
  ---------------------------------------------------
  free energy    TOTEN  =        -9.85335046 eV

  energy without entropy =       -9.85064788  energy(sigma->0) =       -9.85199917


--------------------------------------------------------------------------------------------------------




----------------------------------------- Iteration    2(   2)  ---------------------------------------


    POTLOK:  cpu time    0.0470: real time    0.0284
    SETDIJ:  cpu time    0.0140: real time    0.0079
     EDDAV:  cpu time    1.8687: real time    1.1940
       DOS:  cpu time    0.0030: real time    0.0012
    CHARGE:  cpu time    0.0300: real time    0.0208
    MIXING:  cpu time    0.0030: real time    0.0025
    --------------------------------------------
      LOOP:  cpu time    1.9697: real time    1.2575

 eigenvalue-minimisations  :   640
 total energy-change (2. order) : 0.9020227E-03  (-0.2003558E-03)
 number of electron       8.0000000 magnetization 
 augmentation part       -0.4868646 magnetization 

 Broyden mixing:
  rms(total) = 0.11250E-01    rms(broyden)= 0.11250E-01
  rms(prec ) = 0.26910E-01
  weight for this iteration     100.00

 eigenvalues of (default mixing * dielectric matrix)
  average eigenvalue GAMMA=   2.0762
  2.0762

 Free energy of the ion-electron system (eV)
  ---------------------------------------------------
  alpha Z        PSCENC =         4.83736710
  Ewald energy   TEWEN  =      -276.62437429
  -Hartree energ DENC   =        -0.77553277
  -exchange      EXHF   =         0.00000000
  -V(xc)+E(xc)   XCENC  =       -17.27299067
  PAW double counting   =       650.88157905     -615.72740602
  entropy T*S    EENTRO =        -0.00271837
  eigenvalues    EBANDS =        38.69970008
  atomic energy  EATOM  =       206.13192747
  Solvation  Ediel_sol  =         0.00000000
  ---------------------------------------------------
  free energy    TOTEN  =        -9.85244843 eV

  energy without entropy =       -9.84973006  energy(sigma->0) =       -9.85108925


--------------------------------------------------------------------------------------------------------




----------------------------------------- Iteration    2(   3)  ---------------------------------------


    POTLOK:  cpu time    0.0480: real time    0.0321
    SETDIJ:  cpu time    0.0070: real time    0.0035
     EDDAV:  cpu time    1.8977: real time    1.2236
       DOS:  cpu time    0.0030: real time    0.0011
    CHARGE:  cpu time    0.0320: real time    0.0214
    MIXING:  cpu time    0.0020: real time    0.0008
    --------------------------------------------
      LOOP:  cpu time    1.9937: real time    1.2855

 eigenvalue-minimisations  :   856
 total energy-change (2. order) : 0.4708229E-03  (-0.1156815E-03)
 number of electron       8.0000000 magnetization 
 augmentation part       -0.4868118 magnetization 

 Broyden mixing:
  rms(total) = 0.96883E-03    rms(broyden)= 0.96879E-03
  rms(prec ) = 0.15575E-02
  weight for this iteration     100.00

 eigenvalues of (default mixing * dielectric matrix)
  average eigenvalue GAMMA=   1.6305
  1.0351  2.2260

 Free energy of the ion-electron system (eV)
  ---------------------------------------------------
  alpha Z        PSCENC =         4.83736710
  Ewald energy   TEWEN  =      -276.62437429
  -Hartree energ DENC   =        -0.77874710
  -exchange      EXHF   =         0.00000000
  -V(xc)+E(xc)   XCENC  =       -17.27285177
  PAW double counting   =       650.54563850     -615.39198594
  entropy T*S    EENTRO =        -0.00274005
  eigenvalues    EBANDS =        38.70378846
  atomic energy  EATOM  =       206.13192747
  Solvation  Ediel_sol  =         0.00000000
  ---------------------------------------------------
  free energy    TOTEN  =        -9.85197761 eV

  energy without entropy =       -9.84923756  energy(sigma->0) =       -9.85060759


--------------------------------------------------------------------------------------------------------




----------------------------------------- Iteration    2(   4)  ---------------------------------------


    POTLOK:  cpu time    0.0530: real time    0.0351
    SETDIJ:  cpu time    0.0040: real time    0.0018
     EDDAV:  cpu time    1.8167: real time    1.1271
       DOS:  cpu time    0.0020: real time    0.0011
    --------------------------------------------
      LOOP:  cpu time    1.8777: real time    1.1673

 eigenvalue-minimisations  :   616
 total energy-change (2. order) :-0.3821731E-05  (-0.3941539E-05)
 number of electron       8.0000000 magnetization 
 augmentation part       -0.4868118 magnetization 

 Free energy of the ion-electron system (eV)
  ---------------------------------------------------
  alpha Z        PSCENC =         4.83736710
  Ewald energy   TEWEN  =      -276.62437429
  -Hartree energ DENC   =        -0.77845930
  -exchange      EXHF   =         0.00000000
  -V(xc)+E(xc)   XCENC  =       -17.27289094
  PAW double counting   =       650.62523222     -615.47155245
  entropy T*S    EENTRO =        -0.00273949
  eigenvalues    EBANDS =        38.70350825
  atomic energy  EATOM  =       206.13192747
  Solvation  Ediel_sol  =         0.00000000
  ---------------------------------------------------
  free energy    TOTEN  =        -9.85198143 eV

  energy without entropy =       -9.84924194  energy(sigma->0) =       -9.85061169


--------------------------------------------------------------------------------------------------------




 average (electrostatic) potential at core
  the test charge radii are     0.9892
  (the norm of the test charge is              1.0000)
       1 -79.3918       2 -79.3918
 
 
 
 E-fermi :  10.6764     XC(G=0): -11.3541     alpha+bet :-17.2328


 k-point     1 :       0.0833    0.0833    0.0833
  band No.  band energies     occupation 
      1      -3.5305      2.00000
      2       2.7096      2.00000
      3       5.1798      2.00000
      4      14.8778      0.00000
      5      15.4147      0.00000
      6      20.1629      0.00000
      7      20.6202      0.00000
      8      20.6912      0.00000

 k-point     2 :       0.2500    0.0833    0.0833
  band No.  band energies     occupation 
      1      -1.7184      2.00000
      2       4.4685      2.00000
      3       6.8948      2.00000
      4       8.8812      2.00000
      5      12.9008      0.00000
      6      14.7482      0.00000
      7      16.8917      0.00000
      8      18.6561      0.00000

 k-point     3 :       0.4167    0.0833    0.0833
  band No.  band energies     occupation 
      1       1.4682      2.00000
      2       3.6996      2.00000
      3       7.5554      2.00000
      4       9.3685      2.00000
      5      10.3360      2.00000
      6      11.8980      0.00000
      7      12.2045      0.00000
      8      17.6650      0.00000

 k-point     4 :      -0.4167    0.0833    0.0833
  band No.  band energies     occupation 
      1      -0.2839      2.00000
      2       5.8061      2.00000
      3       6.1696      2.00000
      4       8.2525      2.00000
      5      12.0741      0.00000
      6      12.3067      0.00000
      7      14.4183      0.00000
      8      17.9903      0.00000

 k-point     5 :      -0.2500    0.0833    0.0833
  band No.  band energies     occupation 
      1      -2.8034      2.00000
      2       3.4163      2.00000
      3       5.8711      2.00000
      4      11.8871      0.00000
      5      13.9057      0.00000
      6      17.5646      0.00000
      7      19.1275      0.00000
      8      19.7638      0.00000

 k-point     6 :      -0.0833    0.0833    0.0833
  band No.  band energies     occupation 
      1      -3.8952      2.00000
      2       2.3548      2.00000
      3       4.8326      2.00000
      4      16.6343      0.00000
      5      17.7504      0.00000
      6      19.7710      0.00000
      7      21.5171      0.00000
      8      21.5535      0.00000

 k-point     7 :       0.2500    0.2500    0.0833
  band No.  band energies     occupation 
      1       0.7849      2.00000
      2       6.6755      2.00000
      3       7.0506      2.00000
      4       7.5181      2.00000
      5       9.2535      2.00000
      6      12.7255      0.00000
      7      13.3956      0.00000
      8      15.0857      0.00000

 k-point     8 :       0.4167    0.2500    0.0833
  band No.  band energies     occupation 
      1       2.5264      2.00000
      2       4.7015      2.00000
      3       6.8898      2.00000
      4       8.5855      2.00000
      5      10.3739      1.99998
      6      11.1910      0.00000
      7      12.4473      0.00000
      8      13.6742      0.00000

 k-point     9 :      -0.4167    0.2500    0.0833
  band No.  band energies     occupation 
      1      -0.6402      2.00000
      2       5.5084      2.00000
      3       7.7253      2.00000
      4       8.0171      2.00000
      5       9.9673      2.00000
      6      13.7226      0.00000
      7      15.3802      0.00000
      8      16.4616      0.00000

 k-point    10 :      -0.2500    0.2500    0.0833
  band No.  band energies     occupation 
      1      -2.4410      2.00000
      2       3.7681      2.00000
      3       6.2143      2.00000
      4      10.2390      2.00000
      5      15.2839      0.00000
      6      16.0439      0.00000
      7      17.5867      0.00000
      8      18.2285      0.00000

 k-point    11 :       0.4167    0.4167    0.0833
  band No.  band energies     occupation 
      1       2.6013      2.00000
      2       3.2704      2.00000
      3       8.6301      2.00000
      4       9.1726      2.00000
      5       9.2749      2.00000
      6      11.1608      0.00000
      7      11.7418      0.00000
      8      15.3190      0.00000

 k-point    12 :      -0.4167    0.4167    0.0833
  band No.  band energies     occupation 
      1       0.4245      2.00000
      2       4.7237      2.00000
      3       6.5559      2.00000
      4       8.8644      2.00000
      5      10.8703      0.00610
      6      13.1517      0.00000
      7      14.0155      0.00000
      8      16.2824      0.00000

 k-point    13 :       0.0833    0.0833    0.2500
  band No.  band energies     occupation 
      1      -3.1078      2.00000
      2       0.6557      2.00000
      3       7.9809      2.00000
      4      15.2534      0.00000
      5      15.7143      0.00000
      6      18.3163      0.00000
      7      18.5557      0.00000
      8      19.2132      0.00000

 k-point    14 :       0.2500    0.0833    0.2500
  band No.  band energies     occupation 
      1      -1.2991      2.00000
      2       2.4327      2.00000
      3       9.2219      2.00000
      4       9.6772      2.00000
      5      12.8729      0.00000
      6      13.2967      0.00000
      7      16.7061      0.00000
      8      18.7724      0.00000

 k-point    15 :       0.4167    0.0833    0.2500
  band No.  band energies     occupation 
      1       1.8816      2.00000
      2       4.1019      2.00000
      3       5.5692      2.00000
      4       7.7150      2.00000
      5      12.2599      0.00000
      6      12.7541      0.00000
      7      14.5957      0.00000
      8      16.1326      0.00000

 k-point    16 :      -0.4167    0.0833    0.2500
  band No.  band energies     occupation 
      1       0.1326      2.00000
      2       3.8363      2.00000
      3       6.5233      2.00000
      4       9.9200      2.00000
      5      11.2630      0.00000
      6      12.6259      0.00000
      7      15.9066      0.00000
      8      17.2623      0.00000

 k-point    17 :      -0.2500    0.0833    0.2500
  band No.  band energies     occupation 
      1      -2.3821      2.00000
      2       1.3690      2.00000
      3       8.6527      2.00000
      4      12.2684      0.00000
      5      14.2636      0.00000
      6      15.7627      0.00000
      7      17.7194      0.00000
      8      18.7327      0.00000

 k-point    18 :      -0.0833    0.0833    0.2500
  band No.  band energies     occupation 
      1      -3.4717      2.00000
      2       0.2980      2.00000
      3       7.6412      2.00000
      4      16.9288      0.00000
      5      17.9065      0.00000
      6      18.1091      0.00000
      7      20.0920      0.00000
      8      20.9020      0.00000

 k-point    19 :       0.2500    0.2500    0.2500
  band No.  band energies     occupation 
      1       1.1992      2.00000
      2       4.8781      2.00000
      3       7.2481      2.00000
      4       7.9114      2.00000
      5      10.8167      0.04711
      6      11.0109      0.00000
      7      12.6293      0.00000
      8      17.5084      0.00000

 k-point    20 :       0.4167    0.2500    0.2500
  band No.  band energies     occupation 
      1       2.9373      2.00000
      2       5.0998      2.00000
      3       6.5940      2.00000
      4       7.3114      2.00000
      5       8.7133      2.00000
      6      10.7570      0.25401
      7      13.8712      0.00000
      8      15.8853      0.00000

 k-point    21 :      -0.4167    0.2500    0.2500
  band No.  band energies     occupation 
      1      -0.2230      2.00000
      2       3.4884      2.00000
      3       8.2084      2.00000
      4      10.3237      2.00000
      5      10.5449      1.93701
      6      11.9379      0.00000
      7      13.9876      0.00000
      8      18.4198      0.00000

 k-point    22 :      -0.2500    0.2500    0.2500
  band No.  band energies     occupation 
      1      -2.0204      2.00000
      2       1.7244      2.00000
      3       8.9787      2.00000
      4      10.6315      1.47404
      5      14.1965      0.00000
      6      15.6510      0.00000
      7      17.6505      0.00000
      8      18.8913      0.00000

 k-point    23 :       0.4167    0.4167    0.2500
  band No.  band energies     occupation 
      1       3.0142      2.00000
      2       3.6746      2.00000
      3       6.6866      2.00000
      4       7.2859      2.00000
      5       9.6544      2.00000
      6      12.8398      0.00000
      7      13.8047      0.00000
      8      14.9890      0.00000

 k-point    24 :      -0.4167    0.4167    0.2500
  band No.  band energies     occupation 
      1       0.8397      2.00000
      2       4.5157      2.00000
      3       5.1587      2.00000
      4       8.6968      2.00000
      5      11.8136      0.00000
      6      14.3844      0.00000
      7      15.6894      0.00000
      8      16.6152      0.00000

 k-point    25 :       0.0833    0.0833    0.4167
  band No.  band energies     occupation 
      1      -2.2651      2.00000
      2      -1.0078      2.00000
      3      11.1173      0.00000
      4      14.4517      0.00000
      5      16.0004      0.00000
      6      16.7897      0.00000
      7      17.1081      0.00000
      8      17.7972      0.00000

 k-point    26 :       0.2500    0.0833    0.4167
  band No.  band energies     occupation 
      1      -0.4634      2.00000
      2       0.7835      2.00000
      3      10.0354      2.00000
      4      11.1191      0.00000
      5      12.8980      0.00000
      6      13.9748      0.00000
      7      15.3321      0.00000
      8      16.3641      0.00000

 k-point    27 :       0.4167    0.0833    0.4167
  band No.  band energies     occupation 
      1       2.7051      2.00000
      2       3.9261      2.00000
      3       4.9330      2.00000
      4       6.1322      2.00000
      5      13.0318      0.00000
      6      14.0631      0.00000
      7      15.8571      0.00000
      8      17.5336      0.00000

 k-point    28 :      -0.4167    0.0833    0.4167
[...]

 k-point     2 :       0.2500    0.0833    0.0833
  band No.  band energies     occupation 
      1      -1.7423      2.00000
      2       4.5705      2.00000
      3       7.0295      2.00000
      4       8.7577      2.00000
      5      12.7444      0.00000
      6      14.7501      0.00000
      7      16.9130      0.00000
      8      18.6513      0.00000

 k-point     3 :       0.4167    0.0833    0.0833
  band No.  band energies     occupation 
      1       1.4086      2.00000
      2       3.6320      2.00000
      3       7.6137      2.00000
      4       9.4474      2.00000
      5      10.4262      1.99993
      6      11.7583      0.00000
      7      12.2695      0.00000
      8      17.6622      0.00000

 k-point     4 :      -0.4167    0.0833    0.0833
  band No.  band energies     occupation 
      1      -0.3225      2.00000
      2       5.8576      2.00000
      3       6.1080      2.00000
      4       8.3727      2.00000
      5      12.0237      0.00000
      6      12.2369      0.00000
      7      14.4696      0.00000
      8      17.9866      0.00000

 k-point     5 :      -0.2500    0.0833    0.0833
  band No.  band energies     occupation 
      1      -2.8165      2.00000
      2       3.5304      2.00000
      3       6.0167      2.00000
      4      11.7311      0.00000
      5      13.7418      0.00000
      6      17.5354      0.00000
      7      19.1128      0.00000
      8      19.7240      0.00000

 k-point     6 :      -0.0833    0.0833    0.0833
  band No.  band energies     occupation 
      1      -3.8974      2.00000
      2       2.4812      2.00000
      3       4.9882      2.00000
      4      16.4284      0.00000
      5      17.5278      0.00000
      6      19.6255      0.00000
      7      21.3448      0.00000
      8      21.6424      0.00000

 k-point     7 :       0.2500    0.2500    0.0833
  band No.  band energies     occupation 
      1       0.7352      2.00000
      2       6.6236      2.00000
      3       7.0516      2.00000
      4       7.4369      2.00000
      5       9.3629      2.00000
      6      12.7018      0.00000
      7      13.4709      0.00000
      8      15.1505      0.00000

 k-point     8 :       0.4167    0.2500    0.0833
  band No.  band energies     occupation 
      1       2.4560      2.00000
      2       4.6175      2.00000
      3       6.8020      2.00000
      4       8.6292      2.00000
      5      10.4409      1.99984
      6      11.2462      0.00000
      7      12.5085      0.00000
      8      13.7497      0.00000

 k-point     9 :      -0.4167    0.2500    0.0833
  band No.  band energies     occupation 
      1      -0.6750      2.00000
      2       5.5983      2.00000
      3       7.6592      2.00000
      4       8.0903      2.00000
      5       9.8447      2.00000
      6      13.7245      0.00000
      7      15.4036      0.00000
      8      16.5069      0.00000

 k-point    10 :      -0.2500    0.2500    0.0833
  band No.  band energies     occupation 
      1      -2.4577      2.00000
      2       3.8781      2.00000
      3       6.3565      2.00000
      4      10.1024      2.00000
      5      15.0898      0.00000
      6      16.0370      0.00000
      7      17.4273      0.00000
      8      18.2416      0.00000

 k-point    11 :       0.4167    0.4167    0.0833
  band No.  band energies     occupation 
      1       2.5172      2.00000
      2       3.2192      2.00000
      3       8.6451      2.00000
      4       9.1596      2.00000
      5       9.2684      2.00000
      6      11.2619      0.00000
      7      11.8060      0.00000
      8      15.3476      0.00000

 k-point    12 :      -0.4167    0.4167    0.0833
  band No.  band energies     occupation 
      1       0.3780      2.00000
      2       4.6449      2.00000
      3       6.6293      2.00000
      4       8.9761      2.00000
      5      10.9217      0.00255
      6      13.2184      0.00000
      7      13.8329      0.00000
      8      16.1250      0.00000

 k-point    13 :       0.0833    0.0833    0.2500
  band No.  band energies     occupation 
      1      -3.1053      2.00000
      2       0.7331      2.00000
      3       8.1905      2.00000
      4      15.0624      0.00000
      5      15.5751      0.00000
      6      18.4203      0.00000
      7      18.6412      0.00000
      8      19.1273      0.00000

 k-point    14 :       0.2500    0.0833    0.2500
  band No.  band energies     occupation 
      1      -1.3148      2.00000
      2       2.4913      2.00000
      3       9.1255      2.00000
      4       9.8439      2.00000
      5      12.8310      0.00000
      6      13.1518      0.00000
      7      16.6394      0.00000
      8      18.8630      0.00000

 k-point    15 :       0.4167    0.0833    0.2500
  band No.  band energies     occupation 
      1       1.8304      2.00000
      2       4.0436      2.00000
      3       5.5883      2.00000
      4       7.7301      2.00000
      5      12.1301      0.00000
      6      12.8948      0.00000
      7      14.6898      0.00000
      8      16.1150      0.00000

 k-point    16 :      -0.4167    0.0833    0.2500
  band No.  band energies     occupation 
      1       0.1023      2.00000
      2       3.8799      2.00000
      3       6.4355      2.00000
      4       9.9331      2.00000
      5      11.4080      0.00000
      6      12.4835      0.00000
      7      15.8694      0.00000
      8      17.3496      0.00000

 k-point    17 :      -0.2500    0.0833    0.2500
  band No.  band energies     occupation 
      1      -2.3869      2.00000
      2       1.4388      2.00000
      3       8.8541      2.00000
      4      12.1218      0.00000
      5      14.1117      0.00000
      6      15.6863      0.00000
      7      17.6432      0.00000
      8      18.9880      0.00000

 k-point    18 :      -0.0833    0.0833    0.2500
  band No.  band energies     occupation 
      1      -3.4656      2.00000
      2       0.3792      2.00000
      3       7.8547      2.00000
      4      16.7653      0.00000
      5      17.8946      0.00000
      6      18.1973      0.00000
      7      19.9509      0.00000
      8      20.7846      0.00000

 k-point    19 :       0.2500    0.2500    0.2500
  band No.  band energies     occupation 
      1       1.1579      2.00000
      2       4.9105      2.00000
      3       7.1314      2.00000
      4       7.8391      2.00000
      5      10.7666      0.41007
      6      11.0632      0.00000
      7      12.7507      0.00000
      8      17.6235      0.00000

 k-point    20 :       0.4167    0.2500    0.2500
  band No.  band energies     occupation 
      1       2.8752      2.00000
      2       5.0255      2.00000
      3       6.6013      2.00000
      4       7.2301      2.00000
      5       8.7089      2.00000
      6      10.7544      0.51449
      7      14.0148      0.00000
      8      16.0130      0.00000

 k-point    21 :      -0.4167    0.2500    0.2500
  band No.  band energies     occupation 
      1      -0.2496      2.00000
      2       3.5358      2.00000
      3       8.1007      2.00000
      4      10.2235      2.00000
      5      10.6828      1.28144
      6      11.9166      0.00000
      7      13.9617      0.00000
      8      18.5448      0.00000

 k-point    22 :      -0.2500    0.2500    0.2500
  band No.  band energies     occupation 
      1      -2.0288      2.00000
      2       1.7904      2.00000
      3       9.1742      2.00000
      4      10.5051      1.99595
      5      14.1428      0.00000
      6      15.4651      0.00000
      7      17.5846      0.00000
      8      18.7852      0.00000

 k-point    23 :       0.4167    0.4167    0.2500
  band No.  band energies     occupation 
      1       2.9383      2.00000
      2       3.6320      2.00000
      3       6.6780      2.00000
      4       7.3209      2.00000
      5       9.5425      2.00000
      6      12.8312      0.00000
      7      13.9480      0.00000
      8      15.1069      0.00000

 k-point    24 :      -0.4167    0.4167    0.2500
  band No.  band energies     occupation 
      1       0.8015      2.00000
      2       4.5501      2.00000
      3       5.0864      2.00000
      4       8.7015      2.00000
      5      11.9772      0.00000
      6      14.2099      0.00000
      7      15.8083      0.00000
      8      16.4747      0.00000

 k-point    25 :       0.0833    0.0833    0.4167
  band No.  band energies     occupation 
      1      -2.2459      2.00000
      2      -0.9637      2.00000
      3      11.3823      0.00000
      4      14.7353      0.00000
      5      15.8255      0.00000
      6      16.6807      0.00000
      7      16.9574      0.00000
      8      17.6767      0.00000

 k-point    26 :       0.2500    0.0833    0.4167
  band No.  band energies     occupation 
      1      -0.4624      2.00000
      2       0.8091      2.00000
      3       9.9387      2.00000
      4      11.0658      0.00000
      5      13.1030      0.00000
      6      13.8587      0.00000
      7      15.2434      0.00000
      8      16.6356      0.00000

 k-point    27 :       0.4167    0.0833    0.4167
  band No.  band energies     occupation 
      1       2.6704      2.00000
      2       3.9167      2.00000
      3       4.8878      2.00000
      4       6.1129      2.00000
      5      12.9097      0.00000
      6      13.9832      0.00000
      7      16.0527      0.00000
      8      17.7079      0.00000

 k-point    28 :      -0.4167    0.0833    0.4167
  band No.  band energies     occupation 
      1       0.9490      2.00000
      2       2.2117      2.00000
      3       7.2496      2.00000
      4       8.4574      2.00000
      5      13.2261      0.00000
      6      13.9550      0.00000
      7      14.9452      0.00000
      8      17.6015      0.00000

 k-point    29 :      -0.2500    0.0833    0.4167
  band No.  band energies     occupation 
      1      -1.5303      2.00000
      2      -0.2523      2.00000
      3      11.9595      0.00000
      4      12.8744      0.00000
      5      14.1893      0.00000
      6      14.6649      0.00000
      7      15.9537      0.00000
      8      16.1855      0.00000

 k-point    30 :      -0.0833    0.0833    0.4167
  band No.  band energies     occupation 
      1      -2.6048      2.00000
      2      -1.3205      2.00000
      3      11.0664      0.00000
      4      14.5506      0.00000
      5      17.6019      0.00000
      6      18.6218      0.00000
      7      18.6865      0.00000
      8      19.6831      0.00000

 k-point    31 :       0.2500    0.2500    0.4167
  band No.  band energies     occupation 
      1       2.0001      2.00000
      2       3.2555      2.00000
      3       7.9413      2.00000
      4       8.6247      2.00000
      5       9.1810      2.00000
      6       9.8202      2.00000
      7      15.5109      0.00000
      8      18.4726      0.00000

 k-point    32 :       0.4167    0.2500    0.4167
  band No.  band energies     occupation 
      1       3.7096      2.00000
      2       4.9418      2.00000
      3       5.8784      2.00000
      4       7.0872      2.00000
      5       8.0394      2.00000
      6       9.2304      2.00000
      7      16.9419      0.00000
      8      18.5251      0.00000

 k-point    33 :      -0.4167    0.2500    0.4167
  band No.  band energies     occupation 
      1       0.5985      2.00000
      2       1.8635      2.00000
      3       8.9083      2.00000
      4      10.0895      2.00000
      5      11.0261      0.00001
      6      12.0958      0.00000
      7      14.3575      0.00000
      8      17.5240      0.00000

 k-point    34 :      -0.2500    0.2500    0.4167
  band No.  band energies     occupation 
      1      -1.1736      2.00000
      2       0.1023      2.00000
      3      11.2604      0.00000
      4      11.9802      0.00000
      5      12.9573      0.00000
      6      15.7983      0.00000
      7      16.2137      0.00000
      8      17.3288      0.00000

 k-point    35 :       0.4167    0.4167    0.4167
  band No.  band energies     occupation 
      1       3.7749      2.00000
      2       4.4430      2.00000
      3       5.0492      2.00000
      4       5.6999      2.00000
      5      10.3358      2.00000
      6      11.4991      0.00000
      7      16.8940      0.00000
      8      17.7174      0.00000

 k-point    36 :      -0.4167    0.4167    0.4167
  band No.  band energies     occupation 
      1       1.6455      2.00000
      2       2.9034      2.00000
      3       5.8919      2.00000
      4       7.1142      2.00000
      5      14.9561      0.00000
      6      14.9629      0.00000
      7      16.0874      0.00000
      8      16.8704      0.00000


--------------------------------------------------------------------------------------------------------


 soft charge-density along one line, spin component           1
         0         1         2         3         4         5         6         7         8         9
 total charge-density along one line
 
 pseudopotential strength for first ion, spin component:           1
 17.910  24.985   0.000   0.000  -0.000   0.000   0.000  -0.000
 24.985  34.860   0.000   0.000  -0.000   0.000   0.000  -0.000
  0.000   0.000   4.088  -0.000   0.000   7.616  -0.000   0.000
  0.000   0.000  -0.000   4.088   0.000  -0.000   7.616   0.000
 -0.000  -0.000   0.000   0.000   4.088   0.000   0.000   7.616
  0.000   0.000   7.616  -0.000   0.000  14.197  -0.000   0.000
  0.000   0.000  -0.000   7.616   0.000  -0.000  14.197   0.000
 -0.000  -0.000   0.000   0.000   7.616   0.000   0.000  14.197
 total augmentation occupancy for first ion, spin component:           1
  5.136  -2.174   0.000   0.000   0.000   0.000   0.000  -0.000
 -2.174   1.355   0.000   0.000  -0.000   0.000   0.000   0.000
  0.000  -0.000   2.407   0.000  -0.000  -0.576   0.000  -0.000
  0.000   0.000  -0.000   2.511   0.000   0.000  -0.608   0.000
  0.000   0.000  -0.000   0.000   2.407  -0.000   0.000  -0.576
 -0.000   0.000  -0.576  -0.000   0.000   0.153   0.000   0.000
  0.000   0.000   0.000  -0.608  -0.000   0.000   0.162   0.000
 -0.000   0.000   0.000   0.000  -0.576  -0.000   0.000   0.153


------------------------ aborting loop because EDIFF is reached ----------------------------------------


    CHARGE:  cpu time    0.0320: real time    0.0209
    FORLOC:  cpu time    0.0010: real time    0.0006
    FORNL :  cpu time    0.0510: real time    0.0297
    STRESS:  cpu time    0.3120: real time    0.1961
    FORCOR:  cpu time    0.0490: real time    0.0302
    FORHAR:  cpu time    0.0150: real time    0.0100
    MIXING:  cpu time    0.0010: real time    0.0016
    OFIELD:  cpu time    0.0000: real time    0.0000

  FORCE on cell =-STRESS in cart. coord.  units (eV):
  Direction    XX          YY          ZZ          XY          YZ          ZX
  --------------------------------------------------------------------------------------
  Alpha Z     4.83737     4.83737     4.83737
  Ewald     -93.34169   -93.34169   -89.91560    -0.00000     0.00000    -0.00000
  Hartree     0.20176     0.20176     0.38585    -0.00000    -0.00000    -0.00000
  E(xc)     -25.62081   -25.62081   -25.67169    -0.00000     0.00000     0.00000
  Local      -8.04629    -8.04630   -11.70944    -0.00001    -0.00000    -0.00000
  n-local    74.83941    77.65685    77.30060    -0.82909     0.05284    -0.58058
  augment   -12.39306   -12.39305   -12.43295     0.00001     0.00000     0.00000
  Kinetic    73.48866    43.71368    57.69008     9.68364    -0.02059     0.68341
  Fock        0.00000     0.00000     0.00000     0.00000     0.00000     0.00000
  -------------------------------------------------------------------------------------
  Total       0.48658     0.48658     0.48422     0.00000     0.00000     0.00000
  in kB      28.00626    28.00626    27.87080     0.00000     0.00000     0.00000
  external pressure =       27.96 kB  Pullay stress =        0.00 kB


 VOLUME and BASIS-vectors are now :
 -----------------------------------------------------------------------------
  energy-cutoff  :      450.00
  volume of cell :       27.84
      direct lattice vectors                 reciprocal lattice vectors
     2.726522879  0.000000000  0.000000000     0.366767507  0.211753319 -0.000000000
    -1.363261440  2.361238078  0.000000000    -0.000000000  0.423506638 -0.000000000
     0.000000000  0.000000000  4.323709678    -0.000000000 -0.000000000  0.231282874

  length of vectors
     2.726522879  2.726522879  4.323709678     0.423506638  0.423506638  0.231282874


 FORCES acting on ions
    electron-ion (+dipol)            ewald-force                    non-local-force                 convergence-correction
 -----------------------------------------------------------------------------------------------
   0.412E-08 -.238E-08 0.462E-14   -.113E-12 0.761E-13 -.412E-14   0.356E-16 -.173E-17 0.000E+00   0.914E-10 -.528E-10 -.395E-16
   0.272E-08 -.157E-08 -.247E-13   0.111E-12 -.777E-13 0.413E-14   0.737E-17 0.861E-18 0.000E+00   -.909E-10 0.525E-10 0.337E-16
 -----------------------------------------------------------------------------------------------
   0.684E-08 -.395E-08 -.201E-13   -.220E-14 -.164E-14 0.522E-17   0.429E-16 -.867E-18 0.000E+00   0.504E-12 -.291E-12 -.588E-17
 
 
 POSITION                                       TOTAL-FORCE (eV/Angst)
 -----------------------------------------------------------------------------------
     -0.00000     -0.00000     -0.00000         0.000000     -0.000000      0.000000
     -0.00000      1.57416      2.16185        -0.000000      0.000000     -0.000000
 -----------------------------------------------------------------------------------
    total drift:                                0.000000     -0.000000     -0.000000


--------------------------------------------------------------------------------------------------------



  FREE ENERGIE OF THE ION-ELECTRON SYSTEM (eV)
  ---------------------------------------------------
  free  energy   TOTEN  =        -9.85529491 eV

  energy  without entropy=       -9.85087263  energy(sigma->0) =       -9.85308377
 
 d Force = 0.0000000E+00[ 0.000E+00, 0.000E+00]  d Energy = 0.6560783E-04-0.656E-04
 d Force = 0.0000000E+00[ 0.000E+00, 0.000E+00]  d Ewald  =-0.4492120E-02 0.449E-02


--------------------------------------------------------------------------------------------------------


    POTLOK:  cpu time    0.0560: real time    0.0368


--------------------------------------------------------------------------------------------------------




--------------------------------------------------------------------------------------------------------


  
 reached required accuracy - stopping structural energy minimisation
 writing wavefunctions
     LOOP+:  cpu time    5.1052: real time    3.5733
    4ORBIT:  cpu time    0.0000: real time    0.0000

 total amount of memory used by VASP on root node    34863. kBytes
========================================================================

   base      :      30000. kBytes
   nonl-proj :       1429. kBytes
   fftplans  :        933. kBytes
   grid      :       1772. kBytes
   one-center:          6. kBytes
   wavefun   :        723. kBytes
 
  
  
 General timing and accounting informations for this job:
 ========================================================
  
                  Total CPU time used (sec):       51.518
                            User time (sec):       47.255
                          System time (sec):        4.263
                         Elapsed time (sec):       33.905
  
                   Maximum memory used (kb):       39092.
                   Average memory used (kb):           0.
  
                          Minor page faults:        57596
                          Major page faults:           10
                 Voluntary context switches:          904
