<?xml version="1.0" encoding="ISO-8859-1"?>
<modeling>
 <generator>
  <i name="program" type="string">vasp </i>
  <i name="version" type="string">5.4.1  </i>
  <i name="subversion" type="string">24Jun15 (build Jul 19 2016 16:50:41) complex                          parallel </i>
  <i name="platform" type="string">IFC91_ompi </i>
  <i name="date" type="string">2019 10 10 </i>
  <i name="time" type="string">11:15:31 </i>
 </generator>
 <incar>
  <i type="string" name="SYSTEM"> Si beta-tin</i>
  <i type="string" name="PREC">accurate</i>
  <i type="int" name="IBRION">     2</i>
  <i name="EDIFF">      0.00001000</i>
  <i name="EDIFFG">     -0.01000000</i>
  <i type="int" name="NSW">   100</i>
  <i type="int" name="ISIF">     4</i>
  <i name="ENMAX">    450.00000000</i>
  <i type="int" name="ISMEAR">     0</i>
  <i name="SIGMA">      0.10000000</i>
  <v type="int" name="KPOINT_BSE">    -1     0     0     0</v>
 </incar>
 <kpoints>
  <generation param="Monkhorst-Pack">
   <v type="int" name="divisions">       6        6        6 </v>
   <v name="usershift">      0.00000000       0.00000000       0.00000000 </v>
   <v name="genvec1">      0.16666667       0.00000000       0.00000000 </v>
   <v name="genvec2">      0.00000000       0.16666667       0.00000000 </v>
   <v name="genvec3">      0.00000000       0.00000000       0.16666667 </v>
   <v name="shift">      0.50000000       0.50000000       0.50000000 </v>
  </generation>
  <varray name="kpointlist" >
   <v>       0.08333333       0.08333333       0.08333333 </v>
   <v>       0.25000000       0.08333333       0.08333333 </v>
   <v>       0.41666667       0.08333333       0.08333333 </v>
   <v>      -0.41666667       0.08333333       0.08333333 </v>
   <v>      -0.25000000       0.08333333       0.08333333 </v>
   <v>      -0.08333333       0.08333333       0.08333333 </v>
   <v>       0.25000000       0.25000000       0.08333333 </v>
   <v>       0.41666667       0.25000000       0.08333333 </v>
   <v>      -0.41666667       0.25000000       0.08333333 </v>
   <v>      -0.25000000       0.25000000       0.08333333 </v>
   <v>       0.41666667       0.41666667       0.08333333 </v>
   <v>      -0.41666667       0.41666667       0.08333333 </v>
   <v>       0.08333333       0.08333333       0.25000000 </v>
   <v>       0.25000000       0.08333333       0.25000000 </v>
   <v>       0.41666667       0.08333333       0.25000000 </v>
   <v>      -0.41666667       0.08333333       0.25000000 </v>
   <v>      -0.25000000       0.08333333       0.25000000 </v>
   <v>      -0.08333333       0.08333333       0.25000000 </v>
   <v>       0.25000000       0.25000000       0.25000000 </v>
   <v>       0.41666667       0.25000000       0.25000000 </v>
   <v>      -0.41666667       0.25000000       0.25000000 </v>
   <v>      -0.25000000       0.25000000       0.25000000 </v>
   <v>       0.41666667       0.41666667       0.25000000 </v>
   <v>      -0.41666667       0.41666667       0.25000000 </v>
   <v>       0.08333333       0.08333333       0.41666667 </v>
   <v>       0.25000000       0.08333333       0.41666667 </v>
   <v>       0.41666667       0.08333333       0.41666667 </v>
   <v>      -0.41666667       0.08333333       0.41666667 </v>
   <v>      -0.25000000       0.08333333       0.41666667 </v>
   <v>      -0.08333333       0.08333333       0.41666667 </v>
   <v>       0.25000000       0.25000000       0.41666667 </v>
   <v>       0.41666667       0.25000000       0.41666667 </v>
   <v>      -0.41666667       0.25000000       0.41666667 </v>
   <v>      -0.25000000       0.25000000       0.41666667 </v>
   <v>       0.41666667       0.41666667       0.41666667 </v>
   <v>      -0.41666667       0.41666667       0.41666667 </v>
  </varray>
  <varray name="weights" >
   <v>       0.01851852 </v>
   <v>       0.03703704 </v>
   <v>       0.03703704 </v>
   <v>       0.03703704 </v>
   <v>       0.03703704 </v>
   <v>       0.01851852 </v>
   <v>       0.01851852 </v>
   <v>       0.03703704 </v>
   <v>       0.03703704 </v>
   <v>       0.01851852 </v>
   <v>       0.01851852 </v>
   <v>       0.01851852 </v>
   <v>       0.01851852 </v>
   <v>       0.03703704 </v>
   <v>       0.03703704 </v>
   <v>       0.03703704 </v>
   <v>       0.03703704 </v>
   <v>       0.01851852 </v>
   <v>       0.01851852 </v>
   <v>       0.03703704 </v>
   <v>       0.03703704 </v>
   <v>       0.01851852 </v>
   <v>       0.01851852 </v>
   <v>       0.01851852 </v>
   <v>       0.01851852 </v>
   <v>       0.03703704 </v>
   <v>       0.03703704 </v>
   <v>       0.03703704 </v>
   <v>       0.03703704 </v>
   <v>       0.01851852 </v>
   <v>       0.01851852 </v>
   <v>       0.03703704 </v>
   <v>       0.03703704 </v>
   <v>       0.01851852 </v>
   <v>       0.01851852 </v>
   <v>       0.01851852 </v>
  </varray>
 </kpoints>
 <parameters>
  <separator name="general" >
   <i type="string" name="SYSTEM">Si beta-tin</i>
   <i type="logical" name="LCOMPAT"> F  </i>
  </separator>
  <separator name="electronic" >
   <i type="string" name="PREC">accura</i>
   <i name="ENMAX">    450.00000000</i>
   <i name="ENAUG">    322.06900000</i>
   <i name="EDIFF">      0.00001000</i>
   <i type="int" name="IALGO">    38</i>
   <i type="int" name="IWAVPR">    11</i>
   <i type="int" name="NBANDS">     8</i>
   <i name="NELECT">      8.00000000</i>
   <i type="int" name="TURBO">     0</i>
   <i type="int" name="IRESTART">     0</i>
   <i type="int" name="NREBOOT">     0</i>
   <i type="int" name="NMIN">     0</i>
   <i name="EREF">      0.00000000</i>
   <separator name="electronic smearing" >
    <i type="int" name="ISMEAR">     0</i>
    <i name="SIGMA">      0.10000000</i>
    <i name="KSPACING">      0.50000000</i>
    <i type="logical" name="KGAMMA"> T  </i>
   </separator>
   <separator name="electronic projectors" >
    <i type="logical" name="LREAL"> F  </i>
    <v name="ROPT">      0.00000000</v>
    <i type="int" name="LMAXPAW">  -100</i>
    <i type="int" name="LMAXMIX">     2</i>
    <i type="logical" name="NLSPLINE"> F  </i>
   </separator>
   <separator name="electronic startup" >
    <i type="int" name="ISTART">     0</i>
    <i type="int" name="ICHARG">     2</i>
    <i type="int" name="INIWAV">     1</i>
   </separator>
   <separator name="electronic spin" >
    <i type="int" name="ISPIN">     1</i>
    <i type="logical" name="LNONCOLLINEAR"> F  </i>
    <v name="MAGMOM">      1.00000000      1.00000000</v>
    <i name="NUPDOWN">     -1.00000000</i>
    <i type="logical" name="LSORBIT"> F  </i>
    <v name="SAXIS">      0.00000000      0.00000000      1.00000000</v>
    <i type="logical" name="LSPIRAL"> F  </i>
    <v name="QSPIRAL">      0.00000000      0.00000000      0.00000000</v>
    <i type="logical" name="LZEROZ"> F  </i>
   </separator>
   <separator name="electronic exchange-correlation" >
    <i type="logical" name="LASPH"> F  </i>
    <i type="logical" name="LMETAGGA"> F  </i>
   </separator>
   <separator name="electronic convergence" >
    <i type="int" name="NELM">    60</i>
    <i type="int" name="NELMDL">    -5</i>
    <i type="int" name="NELMIN">     2</i>
    <i name="ENINI">    450.00000000</i>
    <separator name="electronic convergence detail" >
     <i type="logical" name="LDIAG"> T  </i>
     <i type="logical" name="LSUBROT"> F  </i>
     <i name="WEIMIN">      0.00100000</i>
     <i name="EBREAK">      0.00000031</i>
     <i name="DEPER">      0.30000000</i>
     <i type="int" name="NRMM">     4</i>
     <i name="TIME">      0.40000000</i>
    </separator>
   </separator>
   <separator name="electronic mixer" >
    <i name="AMIX">      0.40000000</i>
    <i name="BMIX">      1.00000000</i>
    <i name="AMIN">      0.10000000</i>
    <i name="AMIX_MAG">      1.60000000</i>
    <i name="BMIX_MAG">      1.00000000</i>
    <separator name="electronic mixer details" >
     <i type="int" name="IMIX">     4</i>
     <i type="logical" name="MIXFIRST"> F  </i>
     <i type="int" name="MAXMIX">   -45</i>
     <i name="WC">    100.00000000</i>
     <i type="int" name="INIMIX">     1</i>
     <i type="int" name="MIXPRE">     1</i>
     <i type="int" name="MREMOVE">     5</i>
    </separator>
   </separator>
   <separator name="electronic dipolcorrection" >
    <i type="logical" name="LDIPOL"> F  </i>
    <i type="logical" name="LMONO"> F  </i>
    <i type="int" name="IDIPOL">     0</i>
    <i name="EPSILON">      1.00000000</i>
    <v name="DIPOL">   -100.00000000   -100.00000000   -100.00000000</v>
    <i name="EFIELD">      0.00000000</i>
   </separator>
  </separator>
  <separator name="grids" >
   <i type="int" name="NGX">    20</i>
   <i type="int" name="NGY">    20</i>
   <i type="int" name="NGZ">    32</i>
   <i type="int" name="NGXF">    40</i>
   <i type="int" name="NGYF">    40</i>
   <i type="int" name="NGZF">    64</i>
   <i type="logical" name="ADDGRID"> F  </i>
  </separator>
  <separator name="ionic" >
   <i type="int" name="NSW">   100</i>
   <i type="int" name="IBRION">     2</i>
   <i type="int" name="ISIF">     4</i>
   <i name="PSTRESS">      0.00000000</i>
   <i name="EDIFFG">     -0.01000000</i>
   <i type="int" name="NFREE">     1</i>
   <i name="POTIM">      0.50000000</i>
   <i name="SMASS">     -3.00000000</i>
   <i name="SCALEE">      1.00000000</i>
  </separator>
  <separator name="ionic md" >
   <i name="TEBEG">      0.00010000</i>
   <i name="TEEND">      0.00010000</i>
   <i type="int" name="NBLOCK">     1</i>
   <i type="int" name="KBLOCK">   100</i>
   <i type="int" name="NPACO">   256</i>
   <i name="APACO">     16.00000000</i>
  </separator>
  <separator name="symmetry" >
   <i type="int" name="ISYM">     2</i>
   <i name="SYMPREC">      0.00001000</i>
  </separator>
  <separator name="dos" >
   <i type="logical" name="LORBIT"> F  </i>
   <v name="RWIGS">     -1.00000000</v>
   <i type="int" name="NEDOS">   301</i>
   <i name="EMIN">     10.00000000</i>
   <i name="EMAX">    -10.00000000</i>
   <i name="EFERMI">      0.00000000</i>
  </separator>
  <separator name="writing" >
   <i type="int" name="NWRITE">     2</i>
   <i type="logical" name="LWAVE"> T  </i>
   <i type="logical" name="LCHARG"> T  </i>
   <i type="logical" name="LPARD"> F  </i>
   <i type="logical" name="LVTOT"> F  </i>
   <i type="logical" name="LVHAR"> F  </i>
   <i type="logical" name="LELF"> F  </i>
   <i type="logical" name="LOPTICS"> F  </i>
   <v name="STM">      0.00000000      0.00000000      0.00000000      0.00000000      0.00000000      0.00000000      0.00000000</v>
  </separator>
  <separator name="performance" >
   <i type="int" name="NPAR">     4</i>
   <i type="int" name="NSIM">     4</i>
   <i type="int" name="NBLK">    -1</i>
   <i type="logical" name="LPLANE"> T  </i>
   <i type="logical" name="LSCALAPACK"> F  </i>
   <i type="logical" name="LSCAAWARE"> F  </i>
   <i type="logical" name="LSCALU"> F  </i>
   <i type="logical" name="LASYNC"> F  </i>
   <i type="logical" name="LORBITALREAL"> F  </i>
  </separator>
  <separator name="miscellaneous" >
   <i type="int" name="IDIOT">     3</i>
   <i type="logical" name="LMUSIC"> F  </i>
   <v name="POMASS">     28.08500000</v>
   <v name="DARWINR">      0.00000000</v>
   <v name="DARWINV">      1.00000000</v>
   <i type="logical" name="LCORR"> T  </i>
  </separator>
  <i type="logical" name="GGA_COMPAT"> T  </i>
  <i type="logical" name="LBERRY"> F  </i>
  <i type="int" name="ICORELEVEL">     0</i>
  <i type="logical" name="LDAU"> F  </i>
  <i type="int" name="I_CONSTRAINED_M">     0</i>
  <separator name="electronic exchange-correlation" >
   <i type="string" name="GGA">--</i>
   <i type="int" name="VOSKOWN">     0</i>
   <i type="logical" name="LHFCALC"> F  </i>
   <i type="string" name="PRECFOCK"></i>
   <i type="logical" name="LSYMGRAD"> F  </i>
   <i type="logical" name="LHFONE"> F  </i>
   <i type="logical" name="LRHFCALC"> F  </i>
   <i type="logical" name="LTHOMAS"> F  </i>
   <i type="logical" name="LMODELHF"> F  </i>
   <i name="ENCUT4O">     -1.00000000</i>
   <i type="int" name="EXXOEP">     0</i>
   <i type="int" name="FOURORBIT">     0</i>
   <i name="AEXX">      0.00000000</i>
   <i name="HFALPHA">      0.00000000</i>
   <i name="MCALPHA">      0.00000000</i>
   <i name="ALDAX">      1.00000000</i>
   <i name="AGGAX">      1.00000000</i>
   <i name="ALDAC">      1.00000000</i>
   <i name="AGGAC">      1.00000000</i>
   <i type="int" name="NKREDX">     1</i>
   <i type="int" name="NKREDY">     1</i>
   <i type="int" name="NKREDZ">     1</i>
   <i type="logical" name="SHIFTRED"> F  </i>
   <i type="logical" name="ODDONLY"> F  </i>
   <i type="logical" name="EVENONLY"> F  </i>
   <i type="int" name="LMAXFOCK">     0</i>
   <i type="int" name="NMAXFOCKAE">     0</i>
   <i type="logical" name="LFOCKAEDFT"> F  </i>
   <i name="HFSCREEN">      0.00000000</i>
   <i name="HFSCREENC">      0.00000000</i>
   <i type="int" name="NBANDSGWLOW">     0</i>
  </separator>
  <separator name="vdW DFT" >
   <i type="logical" name="LUSE_VDW"> F  </i>
   <i name="Zab_VDW">     -0.84910000</i>
   <i name="PARAM1">      0.12340000</i>
   <i name="PARAM2">      1.00000000</i>
   <i name="PARAM3">      0.00000000</i>
  </separator>
  <separator name="model GW" >
   <i type="int" name="MODEL_GW">     0</i>
   <i name="MODEL_EPS0">      8.35077350</i>
   <i name="MODEL_ALPHA">      1.00000000</i>
  </separator>
  <separator name="linear response parameters" >
   <i type="logical" name="LEPSILON"> F  </i>
   <i type="logical" name="LRPA"> F  </i>
   <i type="logical" name="LNABLA"> F  </i>
   <i type="logical" name="LVEL"> F  </i>
   <i type="int" name="KINTER">     0</i>
   <i name="CSHIFT">      0.10000000</i>
   <i name="OMEGAMAX">     -1.00000000</i>
   <i name="DEG_THRESHOLD">      0.00200000</i>
  </separator>
  <separator name="orbital magnetization" >
   <i type="logical" name="NUCIND"> F  </i>
   <v name="MAGPOS">      0.00000000      0.00000000      0.00000000</v>
   <i type="logical" name="LNICSALL"> T  </i>
   <i type="logical" name="ORBITALMAG"> F  </i>
   <i type="logical" name="LMAGBLOCH"> F  </i>
   <i type="logical" name="LCHIMAG"> F  </i>
   <i type="logical" name="LGAUGE"> T  </i>
   <i type="int" name="MAGATOM">     0</i>
   <v name="MAGDIPOL">      0.00000000      0.00000000      0.00000000</v>
   <v name="AVECCONST">      0.00000000      0.00000000      0.00000000</v>
  </separator>
  <separator name="response functions" >
   <i type="logical" name="LADDER"> F  </i>
   <i type="logical" name="LFXC"> F  </i>
   <i type="logical" name="LHARTREE"> T  </i>
   <i type="int" name="IBSE">     0</i>
   <v type="int" name="KPOINT">    -1     0     0     0</v>
   <i type="logical" name="LTCTE"> F  </i>
   <i type="logical" name="LTETE"> F  </i>
   <i type="logical" name="LTRIPLET"> F  </i>
   <i type="logical" name="LFXCEPS"> F  </i>
   <i type="logical" name="LFXHEG"> F  </i>
   <i type="int" name="NATURALO">     0</i>
   <i type="logical" name="L2ORDER"> F  </i>
   <i type="logical" name="LUSEW"> F  </i>
   <i name="ENCUTGW">     -2.00000000</i>
   <i name="ENCUTGWSOFT">     -2.00000000</i>
   <i name="ENCUTLF">     -1.00000000</i>
   <i type="int" name="LMAXMP2">    -1</i>
   <i name="SCISSOR">      0.00000000</i>
   <i type="int" name="NOMEGA">     0</i>
   <i type="int" name="NOMEGAR">     0</i>
   <i type="int" name="NBANDSGW">    -1</i>
   <i type="int" name="NBANDSO">    -1</i>
   <i type="int" name="NBANDSV">    -1</i>
   <i type="int" name="NELM">     1</i>
   <i type="int" name="NELMHF">     1</i>
   <i type="int" name="DIM">     3</i>
   <i type="int" name="ANTIRES">     0</i>
   <i name="OMEGAMAX">    -30.00000000</i>
   <i name="OMEGAMIN">    -30.00000000</i>
   <i name="OMEGATL">   -200.00000000</i>
   <i type="int" name="OMEGAGRID">     0</i>
   <i name="CSHIFT">     -0.10000000</i>
   <i type="logical" name="SELFENERGY"> F  </i>
   <i type="logical" name="LSPECTRAL"> F  </i>
   <i type="logical" name="LSPECTRALGW"> F  </i>
   <i type="logical" name="LSINGLES"> F  </i>
   <i type="logical" name="LFERMIGW"> F  </i>
   <i type="logical" name="ODDONLYGW"> F  </i>
   <i type="logical" name="EVENONLYGW"> F  </i>
   <i type="int" name="NKREDLFX">     1</i>
   <i type="int" name="NKREDLFY">     1</i>
   <i type="int" name="NKREDLFZ">     1</i>
   <i type="int" name="MAXMEM">  1800</i>
   <i type="int" name="TELESCOPE">     0</i>
   <i type="int" name="TAUPAR">     1</i>
   <i type="int" name="OMEGAPAR">    -1</i>
   <i name="LAMBDA">      1.00000000</i>
  </separator>
  <separator name="External order field" >
   <i name="OFIELD_KAPPA">      0.00000000</i>
   <v name="OFIELD_K">      0.00000000      0.00000000      0.00000000</v>
   <i name="OFIELD_Q6_NEAR">      0.00000000</i>
   <i name="OFIELD_Q6_FAR">      0.00000000</i>
   <i name="OFIELD_A">      0.00000000</i>
  </separator>
 </parameters>
 <atominfo>
  <atoms>       2 </atoms>
  <types>       1 </types>
  <array name="atoms" >
   <dimension dim="1">ion</dimension>
   <field type="string">element</field>
   <field type="int">atomtype</field>
   <set>
    <rc><c> S</c><c>   1</c></rc>
    <rc><c> S</c><c>   1</c></rc>
   </set>
  </array>
  <array name="atomtypes" >
   <dimension dim="1">type</dimension>
   <field type="int">atomspertype</field>
   <field type="string">element</field>
   <field>mass</field>
   <field>valence</field>
   <field type="string">pseudopotential</field>
   <set>
    <rc><c>   2</c><c> S</c><c>     28.08500000</c><c>      4.00000000</c><c>  PAW_PBE Si 05Jan2001                  </c></rc>
   </set>
  </array>
 </atominfo>
 <structure name="initialpos" >
  <crystal>
   <varray name="basis" >
    <v>       2.70000000       0.00000000       0.00000000 </v>
    <v>      -1.35000000       2.33826859       0.00000000 </v>
    <v>       0.00000000       0.00000000       4.40907300 </v>
   </varray>
   <i name="volume">     27.83591165 </i>
   <varray name="rec_basis" >
    <v>       0.37037037       0.21383343       0.00000000 </v>
    <v>       0.00000000       0.42766687       0.00000000 </v>
    <v>       0.00000000       0.00000000       0.22680504 </v>
   </varray>
  </crystal>
  <varray name="positions" >
   <v>       0.00000000       0.00000000       0.00000000 </v>
   <v>       0.33333333       0.66666667       0.50000000 </v>
  </varray>
 </structure>
 <calculation>
  <scstep>
   <time name="dav">    1.27    0.79</time>
   <time name="total">    1.32    0.83</time>
   <energy>
    <i name="alphaZ">      4.83736710 </i>
    <i name="ewald">   -276.63469784 </i>
    <i name="hartreedc">     -1.04748694 </i>
    <i name="XCdc">    -17.40352337 </i>
    <i name="pawpsdc">    176.24759923 </i>
    <i name="pawaedc">   -141.06103558 </i>
    <i name="eentropy">     -0.00509504 </i>
    <i name="bandstr">     51.79103571 </i>
    <i name="atom">    206.13192747 </i>
    <i name="e_fr_energy">      2.85609074 </i>
    <i name="e_wo_entrp">      2.86118578 </i>
    <i name="e_0_energy">      2.85863826 </i>
   </energy>
  </scstep>
  <scstep>
   <time name="dav">    2.34    1.45</time>
   <time name="total">    2.34    1.45</time>
   <energy>
    <i name="e_fr_energy">     -9.75936423 </i>
    <i name="e_wo_entrp">     -9.75781656 </i>
    <i name="e_0_energy">     -9.75859039 </i>
   </energy>
  </scstep>
  <scstep>
   <time name="dav">    1.70    1.10</time>
   <time name="total">    1.70    1.10</time>
   <energy>
    <i name="e_fr_energy">     -9.88836463 </i>
    <i name="e_wo_entrp">     -9.88675775 </i>
    <i name="e_0_energy">     -9.88756119 </i>
   </energy>
  </scstep>
  <scstep>
   <time name="dav">    2.12    1.38</time>
   <time name="total">    2.12    1.38</time>
   <energy>
    <i name="e_fr_energy">     -9.88864337 </i>
    <i name="e_wo_entrp">     -9.88703513 </i>
    <i name="e_0_energy">     -9.88783925 </i>
   </energy>
  </scstep>
  <scstep>
   <time name="dav">    1.74    1.08</time>
   <time name="total">    1.78    1.10</time>
   <energy>
    <i name="e_fr_energy">     -9.88864375 </i>
    <i name="e_wo_entrp">     -9.88703549 </i>
    <i name="e_0_energy">     -9.88783962 </i>
   </energy>
  </scstep>
  <scstep>
   <time name="dav">    1.78    1.11</time>
   <time name="total">    1.86    1.16</time>
   <energy>
    <i name="e_fr_energy">     -9.86152063 </i>
    <i name="e_wo_entrp">     -9.85990820 </i>
    <i name="e_0_energy">     -9.86071442 </i>
   </energy>
  </scstep>
  <scstep>
   <time name="dav">    1.71    1.11</time>
   <time name="total">    1.81    1.17</time>
   <energy>
    <i name="e_fr_energy">     -9.84606842 </i>
    <i name="e_wo_entrp">     -9.84444584 </i>
    <i name="e_0_energy">     -9.84525713 </i>
   </energy>
  </scstep>
  <scstep>
   <time name="dav">    2.06    1.24</time>
   <time name="total">    2.14    1.29</time>
   <energy>
    <i name="e_fr_energy">     -9.84593903 </i>
    <i name="e_wo_entrp">     -9.84431516 </i>
    <i name="e_0_energy">     -9.84512710 </i>
   </energy>
  </scstep>
  <scstep>
   <time name="dav">    1.10    0.66</time>
   <time name="total">    1.20    0.72</time>
   <energy>
    <i name="alphaZ">      4.83736710 </i>
    <i name="ewald">   -276.63469784 </i>
    <i name="hartreedc">     -0.77400891 </i>
    <i name="XCdc">    -17.27267697 </i>
    <i name="pawpsdc">    650.05232942 </i>
    <i name="pawaedc">   -614.89875289 </i>
    <i name="eentropy">     -0.00162408 </i>
    <i name="bandstr">     38.71419666 </i>
    <i name="atom">    206.13192747 </i>
    <i name="e_fr_energy">     -9.84594005 </i>
    <i name="e_wo_entrp">     -9.84431597 </i>
    <i name="e_0_energy">     -9.84512801 </i>
   </energy>
  </scstep>
  <structure>
   <crystal>
    <varray name="basis" >
     <v>       2.70000000       0.00000000       0.00000000 </v>
     <v>      -1.35000000       2.33826859       0.00000000 </v>
     <v>       0.00000000       0.00000000       4.40907300 </v>
    </varray>
    <i name="volume">     27.83591165 </i>
    <varray name="rec_basis" >
     <v>       0.37037037       0.21383343       0.00000000 </v>
     <v>       0.00000000       0.42766687       0.00000000 </v>
     <v>       0.00000000       0.00000000       0.22680504 </v>
    </varray>
   </crystal>
   <varray name="positions" >
    <v>       0.00000000       0.00000000       0.00000000 </v>
    <v>       0.33333333       0.66666667       0.50000000 </v>
   </varray>
  </structure>
  <varray name="forces" >
   <v>      -0.00000000      -0.00000000       0.00000000 </v>
   <v>       0.00000000       0.00000000       0.00000000 </v>
  </varray>
  <varray name="stress" >
   <v>      37.36199943       0.00000000       0.00000000 </v>
   <v>       0.00000000      37.36199943       0.00000000 </v>
   <v>       0.00000000       0.00000000       1.93411542 </v>
  </varray>
  <energy>
   <i name="e_fr_energy">     -9.84594005 </i>
   <i name="e_wo_entrp">     -9.84512801 </i>
   <i name="e_0_energy">     -0.00162408 </i>
  </energy>
  <time name="totalsc">   17.43   10.95</time>
 </calculation>
 <calculation>
  <scstep>
   <time name="dav">    1.80    1.11</time>
   <time name="total">    1.88    1.16</time>
   <energy>
    <i name="alphaZ">      4.83736710 </i>
    <i name="ewald">   -276.62437429 </i>
    <i name="hartreedc">     -0.77406859 </i>
    <i name="XCdc">    -17.27306010 </i>
    <i name="pawpsdc">    650.91962855 </i>
    <i name="pawaedc">   -615.76525405 </i>
    <i name="eentropy">     -0.00270258 </i>
    <i name="bandstr">     38.69718603 </i>
    <i name="atom">    206.13192747 </i>
    <i name="e_fr_energy">     -9.85335046 </i>
    <i name="e_wo_entrp">     -9.85064788 </i>
    <i name="e_0_energy">     -9.85199917 </i>
   </energy>
  </scstep>
  <scstep>
   <time name="dav">    1.87    1.19</time>
   <time name="total">    1.97    1.26</time>
   <energy>
    <i name="e_fr_energy">     -9.85244843 </i>
    <i name="e_wo_entrp">     -9.84973006 </i>
    <i name="e_0_energy">     -9.85108925 </i>
   </energy>
  </scstep>
  <scstep>
   <time name="dav">    1.90    1.22</time>
   <time name="total">    1.99    1.29</time>
   <energy>
    <i name="e_fr_energy">     -9.85197761 </i>
    <i name="e_wo_entrp">     -9.84923756 </i>
    <i name="e_0_energy">     -9.85060759 </i>
   </energy>
  </scstep>
  <scstep>
   <time name="dav">    1.82    1.13</time>
   <time name="total">    1.88    1.17</time>
   <energy>
    <i name="alphaZ">      4.83736710 </i>
    <i name="ewald">   -276.62437429 </i>
    <i name="hartreedc">     -0.77845930 </i>
    <i name="XCdc">    -17.27289094 </i>
    <i name="pawpsdc">    650.62523222 </i>
    <i name="pawaedc">   -615.47155245 </i>
    <i name="eentropy">     -0.00273949 </i>
    <i name="bandstr">     38.70350825 </i>
    <i name="atom">    206.13192747 </i>
    <i name="e_fr_energy">     -9.85198143 </i>
    <i name="e_wo_entrp">     -9.84924194 </i>
    <i name="e_0_energy">     -9.85061169 </i>
   </energy>
  </scstep>
  <structure>
   <crystal>
    <varray name="basis" >
     <v>       2.71342906       0.00000000       0.00000000 </v>
     <v>      -1.35671453       2.34989850       0.00000000 </v>
     <v>       0.00000000       0.00000000       4.36553902 </v>
    </varray>
    <i name="volume">     27.83591165 </i>
    <varray name="rec_basis" >
     <v>       0.36853737       0.21277515      -0.00000000 </v>
     <v>      -0.00000000       0.42555030      -0.00000000 </v>
     <v>      -0.00000000      -0.00000000       0.22906679 </v>
    </varray>
   </crystal>
   <varray name="positions" >
    <v>      -0.00000000      -0.00000000       0.00000000 </v>
    <v>       0.33333333       0.66666667       0.50000000 </v>
   </varray>
  </structure>
  <varray name="forces" >
   <v>       0.00000000      -0.00000000      -0.00000000 </v>
   <v>      -0.00000000       0.00000000       0.00000000 </v>
  </varray>
  <varray name="stress" >
   <v>      39.62961205       0.00000000       0.00000000 </v>
   <v>       0.00000000      39.62961205       0.00000000 </v>
   <v>       0.00000000       0.00000000       1.18025428 </v>
  </varray>
  <energy>
   <i name="e_fr_energy">     -9.85198143 </i>
   <i name="e_wo_entrp">     -9.85061169 </i>
   <i name="e_0_energy">     -0.00273949 </i>
  </energy>
  <time name="totalsc">    8.45    5.34</time>
 </calculation>
 <calculation>
  <scstep>
   <time name="dav">    2.23    1.40</time>
   <time name="total">    2.30    1.45</time>
   <energy>
    <i name="alphaZ">      4.83736710 </i>
    <i name="ewald">   -276.49726428 </i>
    <i name="hartreedc">     -0.78158800 </i>
    <i name="XCdc">    -17.27399757 </i>
    <i name="pawpsdc">    650.77797511 </i>
    <i name="pawaedc">   -615.62425545 </i>
    <i name="eentropy">     -0.00408332 </i>
    <i name="bandstr">     38.58231808 </i>
    <i name="atom">    206.13192747 </i>
    <i name="e_fr_energy">     -9.85160086 </i>
    <i name="e_wo_entrp">     -9.84751754 </i>
    <i name="e_0_energy">     -9.84955920 </i>
   </energy>
  </scstep>
  <scstep>
   <time name="dav">    1.61    1.01</time>
   <time name="total">    1.72    1.09</time>
   <energy>
    <i name="e_fr_energy">     -9.84392091 </i>
    <i name="e_wo_entrp">     -9.83966731 </i>
    <i name="e_0_energy">     -9.84179411 </i>
   </energy>
  </scstep>
  <scstep>
   <time name="dav">    2.08    1.33</time>
   <time name="total">    2.20    1.40</time>
   <energy>
    <i name="e_fr_energy">     -9.83995210 </i>
    <i name="e_wo_entrp">     -9.83546300 </i>
    <i name="e_0_energy">     -9.83770755 </i>
   </energy>
  </scstep>
  <scstep>
   <time name="dav">    1.22    0.73</time>
   <time name="total">    1.31    0.79</time>
   <energy>
    <i name="e_fr_energy">     -9.83998231 </i>
    <i name="e_wo_entrp">     -9.83550053 </i>
    <i name="e_0_energy">     -9.83774142 </i>
   </energy>
  </scstep>
  <scstep>
   <time name="dav">    1.79    1.10</time>
   <time name="total">    1.86    1.14</time>
   <energy>
    <i name="alphaZ">      4.83736710 </i>
    <i name="ewald">   -276.49726428 </i>
    <i name="hartreedc">     -0.83762463 </i>
    <i name="XCdc">    -17.26758988 </i>
    <i name="pawpsdc">    654.65837944 </i>
    <i name="pawaedc">   -619.50664813 </i>
    <i name="eentropy">     -0.00447875 </i>
    <i name="bandstr">     38.64594524 </i>
    <i name="atom">    206.13192747 </i>
    <i name="e_fr_energy">     -9.83998642 </i>
    <i name="e_wo_entrp">     -9.83550767 </i>
    <i name="e_0_energy">     -9.83774704 </i>
   </energy>
  </scstep>
  <structure>
   <crystal>
    <varray name="basis" >
     <v>       2.75454366       0.00000000       0.00000000 </v>
     <v>      -1.37727183       2.38550479       0.00000000 </v>
     <v>       0.00000000       0.00000000       4.23619063 </v>
    </varray>
    <i name="volume">     27.83591165 </i>
    <varray name="rec_basis" >
     <v>       0.36303654       0.20959924      -0.00000000 </v>
     <v>      -0.00000000       0.41919849      -0.00000000 </v>
     <v>      -0.00000000      -0.00000000       0.23606114 </v>
    </varray>
   </crystal>
   <varray name="positions" >
    <v>      -0.00000000      -0.00000000       0.00000000 </v>
    <v>       0.33333333       0.66666667       0.50000000 </v>
   </varray>
  </structure>
  <varray name="forces" >
   <v>       0.00000000       0.00000000      -0.00000000 </v>
   <v>      -0.00000000      -0.00000000       0.00000000 </v>
  </varray>
  <varray name="stress" >
   <v>      -1.21663647       0.00000000       0.00000000 </v>
   <v>       0.00000000      -1.21663647       0.00000000 </v>
   <v>       0.00000000       0.00000000      99.29692915 </v>
  </varray>
  <energy>
   <i name="e_fr_energy">     -9.83998642 </i>
   <i name="e_wo_entrp">     -9.83774704 </i>
   <i name="e_0_energy">     -0.00447875 </i>
  </energy>
  <time name="totalsc">   10.17    6.38</time>
 </calculation>
 <calculation>
  <scstep>
   <time name="dav">    2.42    1.44</time>
   <time name="total">    2.51    1.50</time>
   <energy>
    <i name="alphaZ">      4.83736710 </i>
    <i name="ewald">   -276.60327328 </i>
    <i name="hartreedc">     -0.82995307 </i>
    <i name="XCdc">    -17.26829646 </i>
    <i name="pawpsdc">    654.80520733 </i>
    <i name="pawaedc">   -619.65339277 </i>
    <i name="eentropy">     -0.00405113 </i>
    <i name="bandstr">     38.72264088 </i>
    <i name="atom">    206.13192747 </i>
    <i name="e_fr_energy">     -9.86182392 </i>
    <i name="e_wo_entrp">     -9.85777279 </i>
    <i name="e_0_energy">     -9.85979836 </i>
   </energy>
  </scstep>
  <scstep>
   <time name="dav">    1.34    0.86</time>
   <time name="total">    1.45    0.93</time>
   <energy>
    <i name="e_fr_energy">     -9.85742640 </i>
    <i name="e_wo_entrp">     -9.85337881 </i>
    <i name="e_0_energy">     -9.85540261 </i>
   </energy>
  </scstep>
  <scstep>
   <time name="dav">    2.08    1.26</time>
   <time name="total">    2.18    1.32</time>
   <energy>
    <i name="e_fr_energy">     -9.85520780 </i>
    <i name="e_wo_entrp">     -9.85116690 </i>
    <i name="e_0_energy">     -9.85318735 </i>
   </energy>
  </scstep>
  <scstep>
   <time name="dav">    1.23    0.74</time>
   <time name="total">    1.32    0.79</time>
   <energy>
    <i name="e_fr_energy">     -9.85522635 </i>
    <i name="e_wo_entrp">     -9.85118558 </i>
    <i name="e_0_energy">     -9.85320596 </i>
   </energy>
  </scstep>
  <scstep>
   <time name="dav">    1.02    0.61</time>
   <time name="total">    1.08    0.65</time>
   <energy>
    <i name="alphaZ">      4.83736710 </i>
    <i name="ewald">   -276.60327328 </i>
    <i name="hartreedc">     -0.78713347 </i>
    <i name="XCdc">    -17.27237512 </i>
    <i name="pawpsdc">    651.25558899 </i>
    <i name="pawaedc">   -616.10215873 </i>
    <i name="eentropy">     -0.00404035 </i>
    <i name="bandstr">     38.68886809 </i>
    <i name="atom">    206.13192747 </i>
    <i name="e_fr_energy">     -9.85522930 </i>
    <i name="e_wo_entrp">     -9.85118895 </i>
    <i name="e_0_energy">     -9.85320912 </i>
   </energy>
  </scstep>
  <structure>
   <crystal>
    <varray name="basis" >
     <v>       2.72467888       0.00000000       0.00000000 </v>
     <v>      -1.36233944       2.35964113       0.00000000 </v>
     <v>       0.00000000       0.00000000       4.32956404 </v>
    </varray>
    <i name="volume">     27.83591165 </i>
    <varray name="rec_basis" >
     <v>       0.36701573       0.21189663      -0.00000000 </v>
     <v>      -0.00000000       0.42379326      -0.00000000 </v>
     <v>      -0.00000000      -0.00000000       0.23097014 </v>
    </varray>
   </crystal>
   <varray name="positions" >
    <v>      -0.00000000      -0.00000000      -0.00000000 </v>
    <v>       0.33333333       0.66666667       0.50000000 </v>
   </varray>
  </structure>
  <varray name="forces" >
   <v>       0.00000000      -0.00000000       0.00000000 </v>
   <v>      -0.00000000       0.00000000       0.00000000 </v>
  </varray>
  <varray name="stress" >
   <v>      29.64793852       0.00000000      -0.00000000 </v>
   <v>      -0.00000000      29.64793852      -0.00000000 </v>
   <v>       0.00000000       0.00000000      23.99724400 </v>
  </varray>
  <energy>
   <i name="e_fr_energy">     -9.85522930 </i>
   <i name="e_wo_entrp">     -9.85320912 </i>
   <i name="e_0_energy">     -0.00404035 </i>
  </energy>
  <time name="totalsc">    9.61    5.89</time>
 </calculation>
 <calculation>
  <scstep>
   <time name="dav">    1.18    1.00</time>
   <time name="total">    1.26    1.07</time>
   <energy>
    <i name="alphaZ">      4.83736710 </i>
    <i name="ewald">   -276.59878116 </i>
    <i name="hartreedc">     -0.78761063 </i>
    <i name="XCdc">    -17.27234829 </i>
    <i name="pawpsdc">    651.21388041 </i>
    <i name="pawaedc">   -616.06047352 </i>
    <i name="eentropy">     -0.00442201 </i>
    <i name="bandstr">     38.68514031 </i>
    <i name="atom">    206.13192747 </i>
    <i name="e_fr_energy">     -9.85532031 </i>
    <i name="e_wo_entrp">     -9.85089831 </i>
    <i name="e_0_energy">     -9.85310931 </i>
   </energy>
  </scstep>
  <scstep>
   <time name="dav">    1.69    1.15</time>
   <time name="total">    1.77    1.22</time>
   <energy>
    <i name="e_fr_energy">     -9.85530343 </i>
    <i name="e_wo_entrp">     -9.85088131 </i>
    <i name="e_0_energy">     -9.85309237 </i>
   </energy>
  </scstep>
  <scstep>
   <time name="dav">    1.40    0.86</time>
   <time name="total">    1.48    0.91</time>
   <energy>
    <i name="alphaZ">      4.83736710 </i>
    <i name="ewald">   -276.59878116 </i>
    <i name="hartreedc">     -0.78950001 </i>
    <i name="XCdc">    -17.27217559 </i>
    <i name="pawpsdc">    651.35284387 </i>
    <i name="pawaedc">   -616.19948426 </i>
    <i name="eentropy">     -0.00442228 </i>
    <i name="bandstr">     38.68692995 </i>
    <i name="atom">    206.13192747 </i>
    <i name="e_fr_energy">     -9.85529491 </i>
    <i name="e_wo_entrp">     -9.85087263 </i>
    <i name="e_0_energy">     -9.85308377 </i>
   </energy>
  </scstep>
  <structure>
   <crystal>
    <varray name="basis" >
     <v>       2.72652288       0.00000000       0.00000000 </v>
     <v>      -1.36326144       2.36123808       0.00000000 </v>
     <v>       0.00000000       0.00000000       4.32370968 </v>
    </varray>
    <i name="volume">     27.83591165 </i>
    <varray name="rec_basis" >
     <v>       0.36676751       0.21175332      -0.00000000 </v>
     <v>      -0.00000000       0.42350664      -0.00000000 </v>
     <v>      -0.00000000      -0.00000000       0.23128287 </v>
    </varray>
   </crystal>
   <varray name="positions" >
    <v>      -0.00000000      -0.00000000      -0.00000000 </v>
    <v>       0.33333333       0.66666667       0.50000000 </v>
   </varray>
  </structure>
  <varray name="forces" >
   <v>       0.00000000      -0.00000000       0.00000000 </v>
   <v>      -0.00000000       0.00000000      -0.00000000 </v>
  </varray>
  <varray name="stress" >
   <v>      28.00626474      -0.00000000       0.00000000 </v>
   <v>       0.00000000      28.00626474       0.00000000 </v>
   <v>       0.00000000       0.00000000      27.87080172 </v>
  </varray>
  <energy>
   <i name="e_fr_energy">     -9.85529491 </i>
   <i name="e_wo_entrp">     -9.85308377 </i>
   <i name="e_0_energy">     -0.00442228 </i>
  </energy>
  <time name="totalsc">    5.11    3.57</time>
  <eigenvalues>
   <array>
    <dimension dim="1">band</dimension>
    <dimension dim="2">kpoint</dimension>
    <dimension dim="3">spin</dimension>
    <field>eigene</field>
    <field>occ</field>
    <set>
     <set comment="spin 1">
      <set comment="kpoint 1">
       <r>   -3.5364    1.0000 </r>
       <r>    2.8318    1.0000 </r>
       <r>    5.3321    1.0000 </r>
       <r>   14.6787    0.0000 </r>
       <r>   15.2474    0.0000 </r>
       <r>   20.0772    0.0000 </r>
       <r>   20.5721    0.0000 </r>
       <r>   20.6404    0.0000 </r>
      </set>
      <set comment="kpoint 2">
       <r>   -1.7423    1.0000 </r>
       <r>    4.5705    1.0000 </r>
       <r>    7.0295    1.0000 </r>
       <r>    8.7577    1.0000 </r>
       <r>   12.7444    0.0000 </r>
       <r>   14.7501    0.0000 </r>
       <r>   16.9130    0.0000 </r>
       <r>   18.6513    0.0000 </r>
      </set>
      <set comment="kpoint 3">
       <r>    1.4086    1.0000 </r>
       <r>    3.6320    1.0000 </r>
       <r>    7.6137    1.0000 </r>
       <r>    9.4474    1.0000 </r>
       <r>   10.4262    1.0000 </r>
       <r>   11.7583    0.0000 </r>
       <r>   12.2695    0.0000 </r>
       <r>   17.6622    0.0000 </r>
      </set>
      <set comment="kpoint 4">
       <r>   -0.3225    1.0000 </r>
       <r>    5.8576    1.0000 </r>
       <r>    6.1080    1.0000 </r>
       <r>    8.3727    1.0000 </r>
       <r>   12.0237    0.0000 </r>
       <r>   12.2369    0.0000 </r>
       <r>   14.4696    0.0000 </r>
       <r>   17.9866    0.0000 </r>
      </set>
      <set comment="kpoint 5">
       <r>   -2.8165    1.0000 </r>
       <r>    3.5304    1.0000 </r>
       <r>    6.0167    1.0000 </r>
       <r>   11.7311    0.0000 </r>
       <r>   13.7418    0.0000 </r>
       <r>   17.5354    0.0000 </r>
       <r>   19.1128    0.0000 </r>
       <r>   19.7240    0.0000 </r>
      </set>
      <set comment="kpoint 6">
       <r>   -3.8974    1.0000 </r>
       <r>    2.4812    1.0000 </r>
       <r>    4.9882    1.0000 </r>
       <r>   16.4284    0.0000 </r>
       <r>   17.5278    0.0000 </r>
       <r>   19.6255    0.0000 </r>
       <r>   21.3448    0.0000 </r>
       <r>   21.6424    0.0000 </r>
      </set>
      <set comment="kpoint 7">
       <r>    0.7352    1.0000 </r>
       <r>    6.6236    1.0000 </r>
       <r>    7.0516    1.0000 </r>
       <r>    7.4369    1.0000 </r>
       <r>    9.3629    1.0000 </r>
       <r>   12.7018    0.0000 </r>
       <r>   13.4709    0.0000 </r>
       <r>   15.1505    0.0000 </r>
      </set>
      <set comment="kpoint 8">
       <r>    2.4560    1.0000 </r>
       <r>    4.6175    1.0000 </r>
       <r>    6.8020    1.0000 </r>
       <r>    8.6292    1.0000 </r>
       <r>   10.4409    0.9999 </r>
       <r>   11.2462    0.0000 </r>
       <r>   12.5085    0.0000 </r>
       <r>   13.7497    0.0000 </r>
      </set>
      <set comment="kpoint 9">
       <r>   -0.6750    1.0000 </r>
       <r>    5.5983    1.0000 </r>
       <r>    7.6592    1.0000 </r>
       <r>    8.0903    1.0000 </r>
       <r>    9.8447    1.0000 </r>
       <r>   13.7245    0.0000 </r>
       <r>   15.4036    0.0000 </r>
       <r>   16.5069    0.0000 </r>
      </set>
      <set comment="kpoint 10">
       <r>   -2.4577    1.0000 </r>
       <r>    3.8781    1.0000 </r>
       <r>    6.3565    1.0000 </r>
       <r>   10.1024    1.0000 </r>
       <r>   15.0898    0.0000 </r>
       <r>   16.0370    0.0000 </r>
       <r>   17.4273    0.0000 </r>
       <r>   18.2416    0.0000 </r>
      </set>
      <set comment="kpoint 11">
       <r>    2.5172    1.0000 </r>
       <r>    3.2192    1.0000 </r>
       <r>    8.6451    1.0000 </r>
       <r>    9.1596    1.0000 </r>
       <r>    9.2684    1.0000 </r>
       <r>   11.2619    0.0000 </r>
       <r>   11.8060    0.0000 </r>
       <r>   15.3476    0.0000 </r>
      </set>
      <set comment="kpoint 12">
       <r>    0.3780    1.0000 </r>
       <r>    4.6449    1.0000 </r>
       <r>    6.6293    1.0000 </r>
       <r>    8.9761    1.0000 </r>
       <r>   10.9217    0.0013 </r>
       <r>   13.2184    0.0000 </r>
       <r>   13.8329    0.0000 </r>
       <r>   16.1250    0.0000 </r>
      </set>
      <set comment="kpoint 13">
       <r>   -3.1053    1.0000 </r>
       <r>    0.7331    1.0000 </r>
       <r>    8.1905    1.0000 </r>
       <r>   15.0624    0.0000 </r>
       <r>   15.5751    0.0000 </r>
       <r>   18.4203    0.0000 </r>
       <r>   18.6412    0.0000 </r>
       <r>   19.1273    0.0000 </r>
      </set>
      <set comment="kpoint 14">
       <r>   -1.3148    1.0000 </r>
       <r>    2.4913    1.0000 </r>
       <r>    9.1255    1.0000 </r>
       <r>    9.8439    1.0000 </r>
       <r>   12.8310    0.0000 </r>
       <r>   13.1518    0.0000 </r>
       <r>   16.6394    0.0000 </r>
       <r>   18.8630    0.0000 </r>
      </set>
      <set comment="kpoint 15">
       <r>    1.8304    1.0000 </r>
       <r>    4.0436    1.0000 </r>
       <r>    5.5883    1.0000 </r>
       <r>    7.7301    1.0000 </r>
       <r>   12.1301    0.0000 </r>
       <r>   12.8948    0.0000 </r>
       <r>   14.6898    0.0000 </r>
       <r>   16.1150    0.0000 </r>
      </set>
      <set comment="kpoint 16">
       <r>    0.1023    1.0000 </r>
       <r>    3.8799    1.0000 </r>
       <r>    6.4355    1.0000 </r>
       <r>    9.9331    1.0000 </r>
       <r>   11.4080    0.0000 </r>
       <r>   12.4835    0.0000 </r>
       <r>   15.8694    0.0000 </r>
       <r>   17.3496    0.0000 </r>
      </set>
      <set comment="kpoint 17">
       <r>   -2.3869    1.0000 </r>
       <r>    1.4388    1.0000 </r>
       <r>    8.8541    1.0000 </r>
       <r>   12.1218    0.0000 </r>
       <r>   14.1117    0.0000 </r>
       <r>   15.6863    0.0000 </r>
       <r>   17.6432    0.0000 </r>
       <r>   18.9880    0.0000 </r>
      </set>
      <set comment="kpoint 18">
       <r>   -3.4656    1.0000 </r>
       <r>    0.3792    1.0000 </r>
       <r>    7.8547    1.0000 </r>
       <r>   16.7653    0.0000 </r>
       <r>   17.8946    0.0000 </r>
       <r>   18.1973    0.0000 </r>
       <r>   19.9509    0.0000 </r>
       <r>   20.7846    0.0000 </r>
      </set>
      <set comment="kpoint 19">
       <r>    1.1579    1.0000 </r>
       <r>    4.9105    1.0000 </r>
       <r>    7.1314    1.0000 </r>
       <r>    7.8391    1.0000 </r>
       <r>   10.7666    0.2050 </r>
       <r>   11.0632    0.0000 </r>
       <r>   12.7507    0.0000 </r>
       <r>   17.6235    0.0000 </r>
      </set>
      <set comment="kpoint 20">
       <r>    2.8752    1.0000 </r>
       <r>    5.0255    1.0000 </r>
       <r>    6.6013    1.0000 </r>
       <r>    7.2301    1.0000 </r>
       <r>    8.7089    1.0000 </r>
       <r>   10.7544    0.2572 </r>
       <r>   14.0148    0.0000 </r>
       <r>   16.0130    0.0000 </r>
      </set>
      <set comment="kpoint 21">
       <r>   -0.2496    1.0000 </r>
       <r>    3.5358    1.0000 </r>
       <r>    8.1007    1.0000 </r>
       <r>   10.2235    1.0000 </r>
       <r>   10.6828    0.6407 </r>
       <r>   11.9166    0.0000 </r>
       <r>   13.9617    0.0000 </r>
       <r>   18.5448    0.0000 </r>
      </set>
      <set comment="kpoint 22">
       <r>   -2.0288    1.0000 </r>
       <r>    1.7904    1.0000 </r>
       <r>    9.1742    1.0000 </r>
       <r>   10.5051    0.9980 </r>
       <r>   14.1428    0.0000 </r>
       <r>   15.4651    0.0000 </r>
       <r>   17.5846    0.0000 </r>
       <r>   18.7852    0.0000 </r>
      </set>
      <set comment="kpoint 23">
       <r>    2.9383    1.0000 </r>
       <r>    3.6320    1.0000 </r>
       <r>    6.6780    1.0000 </r>
       <r>    7.3209    1.0000 </r>
       <r>    9.5425    1.0000 </r>
       <r>   12.8312    0.0000 </r>
       <r>   13.9480    0.0000 </r>
       <r>   15.1069    0.0000 </r>
      </set>
      <set comment="kpoint 24">
       <r>    0.8015    1.0000 </r>
       <r>    4.5501    1.0000 </r>
       <r>    5.0864    1.0000 </r>
       <r>    8.7015    1.0000 </r>
       <r>   11.9772    0.0000 </r>
       <r>   14.2099    0.0000 </r>
       <r>   15.8083    0.0000 </r>
       <r>   16.4747    0.0000 </r>
      </set>
      <set comment="kpoint 25">
       <r>   -2.2459    1.0000 </r>
       <r>   -0.9637    1.0000 </r>
       <r>   11.3823    0.0000 </r>
       <r>   14.7353    0.0000 </r>
       <r>   15.8255    0.0000 </r>
       <r>   16.6807    0.0000 </r>
       <r>   16.9574    0.0000 </r>
       <r>   17.6767    0.0000 </r>
      </set>
      <set comment="kpoint 26">
       <r>   -0.4624    1.0000 </r>
       <r>    0.8091    1.0000 </r>
       <r>    9.9387    1.0000 </r>
       <r>   11.0658    0.0000 </r>
       <r>   13.1030    0.0000 </r>
       <r>   13.8587    0.0000 </r>
       <r>   15.2434    0.0000 </r>
       <r>   16.6356    0.0000 </r>
      </set>
      <set comment="kpoint 27">
       <r>    2.6704    1.0000 </r>
       <r>    3.9167    1.0000 </r>
       <r>    4.8878    1.0000 </r>
       <r>    6.1129    1.0000 </r>
       <r>   12.9097    0.0000 </r>
       <r>   13.9832    0.0000 </r>
       <r>   16.0527    0.0000 </r>
       <r>   17.7079    0.0000 </r>
      </set>
      <set comment="kpoint 28">
       <r>    0.9490    1.0000 </r>
       <r>    2.2117    1.0000 </r>
       <r>    7.2496    1.0000 </r>
       <r>    8.4574    1.0000 </r>
       <r>   13.2261    0.0000 </r>
       <r>   13.9550    0.0000 </r>
       <r>   14.9452    0.0000 </r>
       <r>   17.6015    0.0000 </r>
      </set>
      <set comment="kpoint 29">
       <r>   -1.5303    1.0000 </r>
       <r>   -0.2523    1.0000 </r>
       <r>   11.9595    0.0000 </r>
       <r>   12.8744    0.0000 </r>
       <r>   14.1893    0.0000 </r>
       <r>   14.6649    0.0000 </r>
       <r>   15.9537    0.0000 </r>
       <r>   16.1855    0.0000 </r>
      </set>
      <set comment="kpoint 30">
       <r>   -2.6048    1.0000 </r>
       <r>   -1.3205    1.0000 </r>
       <r>   11.0664    0.0000 </r>
       <r>   14.5506    0.0000 </r>
       <r>   17.6019    0.0000 </r>
       <r>   18.6218    0.0000 </r>
       <r>   18.6865    0.0000 </r>
       <r>   19.6831    0.0000 </r>
      </set>
      <set comment="kpoint 31">
       <r>    2.0001    1.0000 </r>
       <r>    3.2555    1.0000 </r>
       <r>    7.9413    1.0000 </r>
       <r>    8.6247    1.0000 </r>
       <r>    9.1810    1.0000 </r>
       <r>    9.8202    1.0000 </r>
       <r>   15.5109    0.0000 </r>
       <r>   18.4726    0.0000 </r>
      </set>
      <set comment="kpoint 32">
       <r>    3.7096    1.0000 </r>
       <r>    4.9418    1.0000 </r>
       <r>    5.8784    1.0000 </r>
       <r>    7.0872    1.0000 </r>
       <r>    8.0394    1.0000 </r>
       <r>    9.2304    1.0000 </r>
       <r>   16.9419    0.0000 </r>
       <r>   18.5251    0.0000 </r>
      </set>
      <set comment="kpoint 33">
       <r>    0.5985    1.0000 </r>
       <r>    1.8635    1.0000 </r>
       <r>    8.9083    1.0000 </r>
       <r>   10.0895    1.0000 </r>
       <r>   11.0261    0.0000 </r>
       <r>   12.0958    0.0000 </r>
       <r>   14.3575    0.0000 </r>
       <r>   17.5240    0.0000 </r>
      </set>
      <set comment="kpoint 34">
       <r>   -1.1736    1.0000 </r>
       <r>    0.1023    1.0000 </r>
       <r>   11.2604    0.0000 </r>
       <r>   11.9802    0.0000 </r>
       <r>   12.9573    0.0000 </r>
       <r>   15.7983    0.0000 </r>
       <r>   16.2137    0.0000 </r>
       <r>   17.3288    0.0000 </r>
      </set>
      <set comment="kpoint 35">
       <r>    3.7749    1.0000 </r>
       <r>    4.4430    1.0000 </r>
       <r>    5.0492    1.0000 </r>
       <r>    5.6999    1.0000 </r>
       <r>   10.3358    1.0000 </r>
       <r>   11.4991    0.0000 </r>
       <r>   16.8940    0.0000 </r>
       <r>   17.7174    0.0000 </r>
      </set>
      <set comment="kpoint 36">
       <r>    1.6455    1.0000 </r>
       <r>    2.9034    1.0000 </r>
       <r>    5.8919    1.0000 </r>
       <r>    7.1142    1.0000 </r>
       <r>   14.9561    0.0000 </r>
       <r>   14.9629    0.0000 </r>
       <r>   16.0874    0.0000 </r>
       <r>   16.8704    0.0000 </r>
      </set>
     </set>
    </set>
   </array>
  </eigenvalues>
  <separator name="orbital magnetization" >
   <v name="MAGDIPOLOUT">      0.00000000      0.00000000      0.00000000</v>
  </separator>
  <dos>
   <i name="efermi">     10.70831654 </i>
   <total>
    <array>
     <dimension dim="1">gridpoints</dimension>
     <dimension dim="2">spin</dimension>
     <field>energy</field>
     <field>total</field>
     <field>integrated</field>
     <set>
      <set comment="spin 1">
       <r>    -5.1744     0.0000     0.0000 </r>
       <r>    -5.0807     0.0000     0.0000 </r>
       <r>    -4.9871     0.0000     0.0000 </r>
       <r>    -4.8935     0.0000     0.0000 </r>
       <r>    -4.7998     0.0000     0.0000 </r>
       <r>    -4.7062     0.0000     0.0000 </r>
       <r>    -4.6125     0.0000     0.0000 </r>
       <r>    -4.5189     0.0000     0.0000 </r>
       <r>    -4.4252     0.0000     0.0000 </r>
       <r>    -4.3316     0.0000     0.0000 </r>
       <r>    -4.2379     0.0000     0.0000 </r>
       <r>    -4.1443     0.0001     0.0000 </r>
       <r>    -4.0506     0.0059     0.0006 </r>
       <r>    -3.9570     0.0730     0.0074 </r>
       <r>    -3.8634     0.1919     0.0254 </r>
       <r>    -3.7697     0.1108     0.0357 </r>
       <r>    -3.6761     0.0236     0.0380 </r>
       <r>    -3.5824     0.1116     0.0484 </r>
       <r>    -3.4888     0.3221     0.0786 </r>
       <r>    -3.3951     0.2755     0.1044 </r>
       <r>    -3.3015     0.0690     0.1108 </r>
       <r>    -3.2078     0.0321     0.1138 </r>
       <r>    -3.1142     0.1490     0.1278 </r>
       <r>    -3.0205     0.1734     0.1440 </r>
       <r>    -2.9269     0.0886     0.1523 </r>
       <r>    -2.8332     0.2771     0.1783 </r>
       <r>    -2.7396     0.3710     0.2130 </r>
       <r>    -2.6460     0.2044     0.2322 </r>
       <r>    -2.5523     0.2421     0.2548 </r>
       <r>    -2.4587     0.3583     0.2884 </r>
       <r>    -2.3650     0.5564     0.3405 </r>
       <r>    -2.2714     0.4191     0.3797 </r>
       <r>    -2.1777     0.2349     0.4017 </r>
       <r>    -2.0841     0.1420     0.4150 </r>
       <r>    -1.9904     0.1979     0.4336 </r>
       <r>    -1.8968     0.1153     0.4444 </r>
       <r>    -1.8031     0.1548     0.4589 </r>
       <r>    -1.7095     0.3875     0.4951 </r>
       <r>    -1.6159     0.3099     0.5242 </r>
       <r>    -1.5222     0.3726     0.5591 </r>
       <r>    -1.4286     0.3663     0.5934 </r>
       <r>    -1.3349     0.4667     0.6371 </r>
       <r>    -1.2413     0.6087     0.6941 </r>
       <r>    -1.1476     0.3493     0.7268 </r>
       <r>    -1.0540     0.1710     0.7428 </r>
       <r>    -0.9603     0.1829     0.7599 </r>
       <r>    -0.8667     0.1598     0.7749 </r>
       <r>    -0.7730     0.0952     0.7838 </r>
       <r>    -0.6794     0.3127     0.8131 </r>
       <r>    -0.5857     0.3645     0.8472 </r>
       <r>    -0.4921     0.3196     0.8771 </r>
       <r>    -0.3985     0.5175     0.9256 </r>
       <r>    -0.3048     0.8200     1.0024 </r>
       <r>    -0.2112     1.0568     1.1014 </r>
       <r>    -0.1175     0.4525     1.1437 </r>
       <r>    -0.0239     0.0903     1.1522 </r>
       <r>     0.0698     0.3401     1.1840 </r>
       <r>     0.1634     0.5746     1.2378 </r>
       <r>     0.2571     0.2457     1.2608 </r>
       <r>     0.3507     0.2573     1.2849 </r>
       <r>     0.4444     0.3890     1.3214 </r>
       <r>     0.5380     0.2755     1.3472 </r>
       <r>     0.6316     0.4564     1.3899 </r>
       <r>     0.7253     0.6634     1.4520 </r>
       <r>     0.8189     0.9239     1.5386 </r>
       <r>     0.9126     0.7327     1.6072 </r>
       <r>     1.0062     0.4733     1.6515 </r>
       <r>     1.0999     0.2305     1.6731 </r>
       <r>     1.1935     0.2065     1.6924 </r>
       <r>     1.2872     0.1538     1.7068 </r>
       <r>     1.3808     0.4040     1.7447 </r>
       <r>     1.4745     0.7658     1.8164 </r>
       <r>     1.5681     0.3973     1.8536 </r>
       <r>     1.6618     0.2367     1.8757 </r>
       <r>     1.7554     0.4038     1.9135 </r>
       <r>     1.8490     0.8668     1.9947 </r>
       <r>     1.9427     0.7754     2.0673 </r>
       <r>     2.0363     0.3450     2.0996 </r>
       <r>     2.1300     0.2073     2.1191 </r>
       <r>     2.2236     0.3639     2.1531 </r>
       <r>     2.3173     0.3189     2.1830 </r>
       <r>     2.4109     0.4196     2.2223 </r>
       <r>     2.5046     1.0808     2.3235 </r>
       <r>     2.5982     0.8794     2.4059 </r>
       <r>     2.6919     0.5148     2.4541 </r>
       <r>     2.7855     0.4589     2.4970 </r>
       <r>     2.8791     0.7660     2.5688 </r>
       <r>     2.9728     0.7818     2.6420 </r>
       <r>     3.0664     0.2502     2.6654 </r>
       <r>     3.1601     0.1277     2.6774 </r>
       <r>     3.2537     0.3514     2.7103 </r>
       <r>     3.3474     0.2800     2.7365 </r>
       <r>     3.4410     0.2002     2.7552 </r>
       <r>     3.5347     0.7555     2.8260 </r>
       <r>     3.6283     1.2057     2.9389 </r>
       <r>     3.7220     1.0838     3.0404 </r>
       <r>     3.8156     0.8640     3.1213 </r>
       <r>     3.9092     1.0508     3.2197 </r>
       <r>     4.0029     0.9051     3.3045 </r>
       <r>     4.0965     0.5185     3.3530 </r>
       <r>     4.1902     0.1700     3.3690 </r>
       <r>     4.2838     0.0197     3.3708 </r>
       <r>     4.3775     0.0711     3.3775 </r>
       <r>     4.4711     0.3166     3.4071 </r>
       <r>     4.5648     0.8178     3.4837 </r>
       <r>     4.6584     1.0588     3.5828 </r>
       <r>     4.7521     0.4762     3.6274 </r>
       <r>     4.8457     0.3939     3.6643 </r>
       <r>     4.9394     1.0972     3.7671 </r>
       <r>     5.0330     1.3708     3.8954 </r>
       <r>     5.1266     0.8761     3.9775 </r>
       <r>     5.2203     0.2457     4.0005 </r>
       <r>     5.3139     0.1520     4.0147 </r>
       <r>     5.4076     0.1886     4.0324 </r>
       <r>     5.5012     0.2006     4.0512 </r>
       <r>     5.5949     0.6810     4.1150 </r>
       <r>     5.6885     0.7909     4.1890 </r>
       <r>     5.7822     0.5061     4.2364 </r>
       <r>     5.8758     0.8870     4.3195 </r>
       <r>     5.9695     0.9978     4.4129 </r>
       <r>     6.0631     0.9197     4.4990 </r>
       <r>     6.1567     0.9706     4.5899 </r>
       <r>     6.2504     0.4154     4.6288 </r>
       <r>     6.3440     0.2552     4.6527 </r>
       <r>     6.4377     0.5154     4.7010 </r>
       <r>     6.5313     0.5579     4.7533 </r>
       <r>     6.6250     0.8459     4.8325 </r>
       <r>     6.7186     0.8656     4.9135 </r>
       <r>     6.8123     0.5584     4.9658 </r>
       <r>     6.9059     0.3532     4.9989 </r>
       <r>     6.9996     0.4856     5.0444 </r>
       <r>     7.0932     1.1796     5.1548 </r>
       <r>     7.1869     1.2588     5.2727 </r>
       <r>     7.2805     1.0920     5.3750 </r>
       <r>     7.3741     0.6792     5.4386 </r>
       <r>     7.4678     0.3367     5.4701 </r>
       <r>     7.5614     0.3603     5.5039 </r>
       <r>     7.6551     0.8248     5.5811 </r>
       <r>     7.7487     0.9599     5.6710 </r>
       <r>     7.8424     0.7104     5.7375 </r>
       <r>     7.9360     0.6074     5.7944 </r>
       <r>     8.0297     0.8080     5.8701 </r>
       <r>     8.1233     1.2060     5.9830 </r>
       <r>     8.2170     0.7702     6.0551 </r>
       <r>     8.3106     0.3478     6.0877 </r>
       <r>     8.4042     0.5656     6.1407 </r>
       <r>     8.4979     0.6651     6.2030 </r>
       <r>     8.5915     0.7018     6.2687 </r>
       <r>     8.6852     1.3067     6.3911 </r>
       <r>     8.7788     1.3823     6.5205 </r>
       <r>     8.8725     1.0683     6.6205 </r>
       <r>     8.9661     0.8660     6.7016 </r>
       <r>     9.0598     0.5721     6.7552 </r>
       <r>     9.1534     0.9638     6.8455 </r>
       <r>     9.2471     1.2953     6.9668 </r>
       <r>     9.3407     0.8332     7.0448 </r>
       <r>     9.4343     0.6080     7.1017 </r>
       <r>     9.5280     0.5567     7.1539 </r>
       <r>     9.6216     0.2792     7.1800 </r>
       <r>     9.7153     0.1349     7.1926 </r>
       <r>     9.8089     0.6387     7.2525 </r>
       <r>     9.9026     1.3956     7.3831 </r>
       <r>     9.9962     1.2075     7.4962 </r>
       <r>    10.0899     0.8048     7.5716 </r>
       <r>    10.1835     0.7296     7.6399 </r>
       <r>    10.2772     0.6008     7.6962 </r>
       <r>    10.3708     0.6484     7.7569 </r>
       <r>    10.4645     0.9833     7.8490 </r>
       <r>    10.5581     0.7022     7.9147 </r>
       <r>    10.6517     0.4500     7.9569 </r>
       <r>    10.7454     0.8206     8.0337 </r>
       <r>    10.8390     0.7160     8.1008 </r>
       <r>    10.9327     0.4460     8.1425 </r>
       <r>    11.0263     0.8903     8.2259 </r>
       <r>    11.1200     1.1688     8.3354 </r>
       <r>    11.2136     0.8013     8.4104 </r>
       <r>    11.3073     0.9165     8.4962 </r>
       <r>    11.4009     0.8429     8.5752 </r>
       <r>    11.4946     0.6594     8.6369 </r>
       <r>    11.5882     0.2955     8.6646 </r>
       <r>    11.6818     0.3389     8.6963 </r>
       <r>    11.7755     0.8912     8.7798 </r>
       <r>    11.8691     0.9681     8.8704 </r>
       <r>    11.9628     1.3122     8.9933 </r>
       <r>    12.0564     1.6969     9.1522 </r>
       <r>    12.1501     1.6584     9.3075 </r>
       <r>    12.2437     1.2887     9.4282 </r>
       <r>    12.3374     0.7886     9.5021 </r>
       <r>    12.4310     0.4539     9.5446 </r>
       <r>    12.5247     0.7618     9.6159 </r>
       <r>    12.6183     0.5624     9.6686 </r>
       <r>    12.7120     0.6381     9.7283 </r>
       <r>    12.8056     1.3572     9.8554 </r>
       <r>    12.8992     1.8865    10.0321 </r>
       <r>    12.9929     1.3603    10.1595 </r>
       <r>    13.0865     0.7474    10.2295 </r>
       <r>    13.1802     1.0485    10.3277 </r>
       <r>    13.2738     0.9254    10.4143 </r>
       <r>    13.3675     0.3242    10.4447 </r>
       <r>    13.4611     0.1732    10.4609 </r>
       <r>    13.5548     0.1853    10.4782 </r>
       <r>    13.6484     0.2804    10.5045 </r>
       <r>    13.7421     1.0663    10.6044 </r>
       <r>    13.8357     1.4592    10.7410 </r>
       <r>    13.9293     1.5859    10.8895 </r>
       <r>    14.0230     1.9332    11.0706 </r>
       <r>    14.1166     1.4380    11.2052 </r>
       <r>    14.2103     1.1432    11.3123 </r>
       <r>    14.3039     0.7204    11.3797 </r>
       <r>    14.3976     0.5903    11.4350 </r>
       <r>    14.4912     0.6567    11.4965 </r>
       <r>    14.5849     0.6723    11.5595 </r>
       <r>    14.6785     1.1481    11.6670 </r>
       <r>    14.7722     1.3802    11.7962 </r>
       <r>    14.8658     0.7106    11.8628 </r>
       <r>    14.9595     0.7859    11.9364 </r>
       <r>    15.0531     0.9776    12.0279 </r>
       <r>    15.1467     0.9295    12.1150 </r>
       <r>    15.2404     0.8916    12.1985 </r>
       <r>    15.3340     0.8356    12.2767 </r>
       <r>    15.4277     0.8261    12.3541 </r>
       <r>    15.5213     0.7617    12.4254 </r>
       <r>    15.6150     0.5776    12.4795 </r>
       <r>    15.7086     0.6026    12.5359 </r>
       <r>    15.8023     0.8568    12.6162 </r>
       <r>    15.8959     1.1346    12.7224 </r>
       <r>    15.9896     1.3172    12.8458 </r>
       <r>    16.0832     1.7550    13.0101 </r>
       <r>    16.1768     1.6172    13.1616 </r>
       <r>    16.2705     0.8533    13.2415 </r>
       <r>    16.3641     0.2909    13.2687 </r>
       <r>    16.4578     0.5226    13.3177 </r>
       <r>    16.5514     0.8691    13.3990 </r>
       <r>    16.6451     1.0639    13.4987 </r>
       <r>    16.7387     0.9657    13.5891 </r>
       <r>    16.8324     0.7104    13.6556 </r>
       <r>    16.9260     1.2031    13.7683 </r>
       <r>    17.0197     1.0317    13.8649 </r>
       <r>    17.1133     0.2430    13.8877 </r>
       <r>    17.2069     0.0473    13.8921 </r>
       <r>    17.3006     0.3110    13.9212 </r>
       <r>    17.3942     0.7489    13.9913 </r>
       <r>    17.4879     1.0659    14.0912 </r>
       <r>    17.5815     2.0246    14.2808 </r>
       <r>    17.6752     2.5489    14.5194 </r>
       <r>    17.7688     1.5958    14.6689 </r>
       <r>    17.8625     0.5076    14.7164 </r>
       <r>    17.9561     0.4469    14.7583 </r>
       <r>    18.0498     0.4597    14.8013 </r>
       <r>    18.1434     0.2543    14.8251 </r>
       <r>    18.2371     0.3613    14.8590 </r>
       <r>    18.3307     0.3195    14.8889 </r>
       <r>    18.4243     0.4005    14.9264 </r>
       <r>    18.5180     0.9681    15.0171 </r>
       <r>    18.6116     1.3661    15.1450 </r>
       <r>    18.7053     1.2119    15.2585 </r>
       <r>    18.7989     0.7351    15.3273 </r>
       <r>    18.8926     0.6325    15.3865 </r>
       <r>    18.9862     0.6155    15.4442 </r>
       <r>    19.0799     0.6739    15.5073 </r>
       <r>    19.1735     0.6516    15.5683 </r>
       <r>    19.2672     0.2384    15.5906 </r>
       <r>    19.3608     0.0207    15.5926 </r>
       <r>    19.4544     0.0037    15.5929 </r>
       <r>    19.5481     0.0669    15.5992 </r>
       <r>    19.6417     0.3705    15.6339 </r>
       <r>    19.7354     0.6820    15.6977 </r>
       <r>    19.8290     0.4132    15.7364 </r>
       <r>    19.9227     0.1860    15.7538 </r>
       <r>    20.0163     0.2623    15.7784 </r>
       <r>    20.1100     0.2567    15.8025 </r>
       <r>    20.2036     0.1173    15.8134 </r>
       <r>    20.2973     0.0143    15.8148 </r>
       <r>    20.3909     0.0025    15.8150 </r>
       <r>    20.4846     0.0460    15.8193 </r>
       <r>    20.5782     0.2390    15.8417 </r>
       <r>    20.6718     0.3648    15.8759 </r>
       <r>    20.7655     0.2783    15.9019 </r>
       <r>    20.8591     0.1982    15.9205 </r>
       <r>    20.9528     0.0547    15.9256 </r>
       <r>    21.0464     0.0034    15.9259 </r>
       <r>    21.1401     0.0008    15.9260 </r>
       <r>    21.2337     0.0222    15.9281 </r>
       <r>    21.3274     0.1363    15.9408 </r>
       <r>    21.4210     0.1810    15.9578 </r>
       <r>    21.5147     0.0660    15.9640 </r>
       <r>    21.6083     0.1138    15.9746 </r>
       <r>    21.7019     0.1920    15.9926 </r>
       <r>    21.7956     0.0730    15.9994 </r>
       <r>    21.8892     0.0059    16.0000 </r>
       <r>    21.9829     0.0001    16.0000 </r>
       <r>    22.0765     0.0000    16.0000 </r>
       <r>    22.1702     0.0000    16.0000 </r>
       <r>    22.2638     0.0000    16.0000 </r>
       <r>    22.3575     0.0000    16.0000 </r>
       <r>    22.4511     0.0000    16.0000 </r>
       <r>    22.5448     0.0000    16.0000 </r>
       <r>    22.6384     0.0000    16.0000 </r>
       <r>    22.7321     0.0000    16.0000 </r>
       <r>    22.8257     0.0000    16.0000 </r>
       <r>    22.9193     0.0000    16.0000 </r>
      </set>
     </set>
    </array>
   </total>
  </dos>
 </calculation>
 <structure name="finalpos" >
  <crystal>
   <varray name="basis" >
    <v>       2.72652288       0.00000000       0.00000000 </v>
    <v>      -1.36326144       2.36123808       0.00000000 </v>
    <v>       0.00000000       0.00000000       4.32370968 </v>
   </varray>
   <i name="volume">     27.83591165 </i>
   <varray name="rec_basis" >
    <v>       0.36676751       0.21175332      -0.00000000 </v>
    <v>      -0.00000000       0.42350664      -0.00000000 </v>
    <v>      -0.00000000      -0.00000000       0.23128287 </v>
   </varray>
  </crystal>
  <varray name="positions" >
   <v>      -0.00000000      -0.00000000      -0.00000000 </v>
   <v>       0.33333333       0.66666667       0.50000000 </v>
  </varray>
 </structure>
</modeling>
