Fe BCC                                  
   2.85000000000000     
    -0.500000    0.500000    0.500000
     0.500000   -0.500000    0.500000
     0.500000    0.500000   -0.500000
   Fe
     1
Direct
  0.000000  0.000000  0.000000
 
   32   32   32
 0.98108458655E+02 0.95805778746E+02 0.89241554497E+02 0.79347741776E+02 0.67392561920E+02
 0.54687776105E+02 0.42366071149E+02 0.31279523439E+02 0.21994802101E+02 0.14819992530E+02
 0.98125912169E+01 0.67678823316E+01 0.52286146412E+01 0.45585013002E+01 0.41624970200E+01
 0.39185246086E+01 0.38369430664E+01 0.39185246086E+01 0.41624970200E+01 0.45585013002E+01
 0.52286146412E+01 0.67678823316E+01 0.98125912169E+01 0.14819992530E+02 0.21994802101E+02
 0.31279523439E+02 0.42366071149E+02 0.54687776105E+02 0.67392561920E+02 0.79347741776E+02
 0.89241554497E+02 0.95805778746E+02 0.95805778746E+02 0.95044757228E+02 0.89922043277E+02
 0.81181245194E+02 0.69988412482E+02 0.57645498017E+02 0.45340291971E+02 0.34006273765E+02
 0.24291426004E+02 0.16580032959E+02 0.11008390734E+02 0.74567486426E+01 0.55475375383E+01
 0.46956847089E+01 0.42540244121E+01 0.39616663911E+01 0.38279378379E+01 0.38547347514E+01
 0.40419977405E+01 0.43850088855E+01 0.49040931704E+01 0.60353361482E+01 0.84363953055E+01
 0.12633620592E+02 0.18921059673E+02 0.27331519802E+02 0.37645564984E+02 0.49393025995E+02
 0.61830882923E+02 0.73931866719E+02 0.84447900363E+02 0.92090771333E+02 0.89241554497E+02
 0.89922043277E+02 0.86388448981E+02 0.79162573143E+02 0.69241605631E+02 0.57841939128E+02
 0.46142697926E+02 0.35115777245E+02 0.25464479313E+02 0.17631231603E+02 0.11815552110E+02
 0.79717473036E+01 0.58026131088E+01 0.47915271893E+01 0.43068582869E+01 0.39787531168E+01
 0.38006825664E+01 0.37756081073E+01 0.39034543002E+01 0.41836470612E+01 0.46059342165E+01
 0.53731951180E+01 0.70956433526E+01 0.10346956452E+02 0.15506161809E+02 0.22703317626E+02
 0.31816768110E+02 0.42480403919E+02 0.54072412475E+02 0.65700318231E+02 0.76235486045E+02
 0.84447900363E+02 0.79347741776E+02 0.81181245194E+02 0.79162573143E+02 0.73595415777E+02
 0.65271050031E+02 0.55259169100E+02 0.44666401364E+02 0.34451664689E+02 0.25338250083E+02
 0.17802402490E+02 0.12087384316E+02 0.82058716738E+01 0.59337915312E+01 0.48299469474E+01
 0.43142812751E+01 0.39654156200E+01 0.37546897076E+01 0.36855861052E+01 0.37571837189E+01
 0.39708886878E+01 0.43237289902E+01 0.48451966418E+01 0.59605807495E+01 0.82570294296E+01
 0.12182967149E+02 0.17965893835E+02 0.25588874705E+02 0.34794812227E+02 0.45085650827E+02
 0.55713627131E+02 0.65700318231E+02 0.73931866719E+02 0.67392561920E+02 0.69988412482E+02
 0.69241605631E+02 0.65271050031E+02 0.58657957545E+02 0.50289791061E+02 0.41149956747E+02
 0.32135062965E+02 0.23949549795E+02 0.17075214701E+02 0.11776977843E+02 0.81073765249E+01
 0.59027774042E+01 0.47956815167E+01 0.42738555423E+01 0.39194760696E+01 0.36898202206E+01
 0.35880070832E+01 0.36115506622E+01 0.37617476875E+01 0.40417729329E+01 0.44449677379E+01
 0.51170255363E+01 0.65729902511E+01 0.93022392666E+01 0.13619339791E+02 0.19614636380E+02
 0.27145067186E+02 0.35836807701E+02 0.45085650827E+02 0.54072412475E+02 0.61830882923E+02
 0.54687776105E+02 0.57645498017E+02 0.57841939128E+02 0.55259169100E+02 0.50289791061E+02
 0.43630601810E+02 0.36111675642E+02 0.28529170134E+02 0.21533648857E+02 0.15584741907E+02
 0.10947046470E+02 0.76941064513E+01 0.57074482709E+01 0.46853956561E+01 0.41878654044E+01
 0.38417659718E+01 0.36069996563E+01 0.34853716265E+01 0.34723826855E+01 0.35676867291E+01
 0.37767112134E+01 0.41030189233E+01 0.45493073822E+01 0.53808957238E+01 0.70801718620E+01
 0.10024433412E+02 0.14404359176E+02 0.20193711673E+02 0.27145067186E+02 0.34794812227E+02
 0.42480403919E+02 0.49393025995E+02 0.42366071149E+02 0.45340291971E+02 0.46142697926E+02
 0.44666401364E+02 0.41149956747E+02 0.36111675642E+02 0.30218876679E+02 0.24144660356E+02
 0.18459953773E+02 0.13579507437E+02 0.97488381251E+01 0.70459323222E+01 0.53824989901E+01
 0.45116842698E+01 0.40629043659E+01 0.37363709409E+01 0.35087683489E+01 0.33798839239E+01
 0.33431253765E+01 0.33957444331E+01 0.35425188738E+01 0.37921883691E+01 0.41471927642E+01
 0.46347111700E+01 0.55741157462E+01 0.73665983401E+01 0.10281739656E+02 0.14404359176E+02
 0.19614636380E+02 0.25588874705E+02 0.31816768110E+02 0.37645564984E+02 0.31279523439E+02
 0.34006273765E+02 0.35115777245E+02 0.34451664689E+02 0.32135062965E+02 0.28529170134E+02
 0.24144660356E+02 0.19523720805E+02 0.15143007471E+02 0.11357196350E+02 0.83793413683E+01
 0.62795051241E+01 0.49871719386E+01 0.42989646005E+01 0.39088146487E+01 0.36102420291E+01
 0.33994487768E+01 0.32739833153E+01 0.32254821190E+01 0.32487827775E+01 0.33464160950E+01
 0.35277913696E+01 0.38030664817E+01 0.41726634454E+01 0.46842724023E+01 0.56450277277E+01
 0.73665983401E+01 0.10024433412E+02 0.13619339791E+02 0.17965893835E+02 0.22703317626E+02
 0.27331519802E+02 0.21994802101E+02 0.24291426004E+02 0.25464479313E+02 0.25338250083E+02
 0.23949549795E+02 0.21533648857E+02 0.18459953773E+02 0.15143007471E+02 0.11960509411E+02
 0.91995023907E+01 0.70330073418E+01 0.55155545614E+01 0.45856229705E+01 0.40735123889E+01
 0.37372788052E+01 0.34722714972E+01 0.32848436114E+01 0.31706357102E+01 0.31201965417E+01
 0.31265137017E+01 0.31894514296E+01 0.33164760603E+01 0.35195344614E+01 0.38082611850E+01
 0.41808330004E+01 0.46842724023E+01 0.55741157462E+01 0.70801718620E+01 0.93022392666E+01
 0.12182967149E+02 0.15506161809E+02 0.18921059673E+02 0.14819992530E+02 0.16580032959E+02
 0.17631231603E+02 0.17802402490E+02 0.17075214701E+02 0.15584741907E+02 0.13579507437E+02
 0.11357196350E+02 0.91995023907E+01 0.73245955707E+01 0.58628043431E+01 0.48495757765E+01
 0.42270410487E+01 0.38516569822E+01 0.35603355656E+01 0.33320349390E+01 0.31715193429E+01
 0.30732808002E+01 0.30276992394E+01 0.30268296999E+01 0.30682809760E+01 0.31566157297E+01
 0.33021022641E+01 0.35167831595E+01 0.38082611850E+01 0.41726634454E+01 0.46347111700E+01
 0.53808957238E+01 0.65729902511E+01 0.82570294296E+01 0.10346956452E+02 0.12633620592E+02
 0.98125912169E+01 0.11008390734E+02 0.11815552110E+02 0.12087384316E+02 0.11776977843E+02
 0.10947046470E+02 0.97488381251E+01 0.83793413683E+01 0.70330073418E+01 0.58628043431E+01
 0.49573689020E+01 0.43323739072E+01 0.39307952260E+01 0.36360601838E+01 0.33890251954E+01
 0.31984585571E+01 0.30658516810E+01 0.29854726018E+01 0.29484851049E+01 0.29470513251E+01
 0.29773954364E+01 0.30413351485E+01 0.31460636574E+01 0.33021022641E+01 0.35195344614E+01
 0.38030664817E+01 0.41471927642E+01 0.45493073822E+01 0.51170255363E+01 0.59605807495E+01
 0.70956433526E+01 0.84363953055E+01 0.67678823316E+01 0.74567486426E+01 0.79717473036E+01
 0.82058716738E+01 0.81073765249E+01 0.76941064513E+01 0.70459323222E+01 0.62795051241E+01
 0.55155545614E+01 0.48495757765E+01 0.43323739072E+01 0.39611242460E+01 0.36793306672E+01
 0.34344735519E+01 0.32323236062E+01 0.30786896086E+01 0.29730895655E+01 0.29103666790E+01
 0.28832312318E+01 0.28848902822E+01 0.29112005248E+01 0.29619929017E+01 0.30413351485E+01
 0.31566157297E+01 0.33164760603E+01 0.35277913696E+01 0.37921883691E+01 0.41030189233E+01
 0.44449677379E+01 0.48451966418E+01 0.53731951180E+01 0.60353361482E+01 0.52286146412E+01
 0.55475375383E+01 0.58026131088E+01 0.59337915312E+01 0.59027774042E+01 0.57074482709E+01
 0.53824989901E+01 0.49871719386E+01 0.45856229705E+01 0.42270410487E+01 0.39307952260E+01
 0.36793306672E+01 0.34517853234E+01 0.32553917851E+01 0.30964984246E+01 0.29774156225E+01
 0.28967077278E+01 0.28502664147E+01 0.28327553772E+01 0.28390735986E+01 0.28656206496E+01
 0.29112005248E+01 0.29773954364E+01 0.30682809760E+01 0.31894514296E+01 0.33464160950E+01
 0.35425188738E+01 0.37767112134E+01 0.40417729329E+01 0.43237289902E+01 0.46059342165E+01
 0.49040931704E+01 0.45585013002E+01 0.46956847089E+01 0.47915271893E+01 0.48299469474E+01
 0.47956815167E+01 0.46853956561E+01 0.45116842698E+01 0.42989646005E+01 0.40735123889E+01
 0.38516569822E+01 0.36360601838E+01 0.34344735519E+01 0.32553917851E+01 0.31045958080E+01
 0.29849730572E+01 0.28967730879E+01 0.28382398594E+01 0.28064203431E+01 0.27979398367E+01
 0.28096391759E+01 0.28390735986E+01 0.28848902822E+01 0.29470513251E+01 0.30268296999E+01
 0.31265137017E+01 0.32487827774E+01 0.33957444331E+01 0.35676867291E+01 0.37617476875E+01
 0.39708886878E+01 0.41836470612E+01 0.43850088855E+01 0.41624970200E+01 0.42540244121E+01
 0.43068582869E+01 0.43142812751E+01 0.42738555423E+01 0.41878654044E+01 0.40629043659E+01
 0.39088146487E+01 0.37372788052E+01 0.35603355656E+01 0.33890251954E+01 0.32323236062E+01
 0.30964984246E+01 0.29849730572E+01 0.28986878142E+01 0.28368199468E+01 0.27976266059E+01
 0.27791634700E+01 0.27797185347E+01 0.27979398367E+01 0.28327553772E+01 0.28832312318E+01
 0.29484851049E+01 0.30276992394E+01 0.31201965417E+01 0.32254821190E+01 0.33431253765E+01
 0.34723826855E+01 0.36115506622E+01 0.37571837189E+01 0.39034543002E+01 0.40419977405E+01
 0.39185246086E+01 0.39616663911E+01 0.39787531168E+01 0.39654156200E+01 0.39194760696E+01
 0.38417659718E+01 0.37363709409E+01 0.36102420291E+01 0.34722714972E+01 0.33320349390E+01
 0.31984585571E+01 0.30786896086E+01 0.29774156225E+01 0.28967730879E+01 0.28368199468E+01
 0.27963758856E+01 0.27739336583E+01 0.27683541751E+01 0.27791634700E+01 0.28064203431E+01
 0.28502664147E+01 0.29103666790E+01 0.29854726018E+01 0.30732808002E+01 0.31706357102E+01
 0.32739833153E+01 0.33798839239E+01 0.34853716265E+01 0.35880070832E+01 0.36855861052E+01
 0.37756081073E+01 0.38547347514E+01 0.38369430664E+01 0.38279378379E+01 0.38006825664E+01
 0.37546897076E+01 0.36898202206E+01 0.36069996563E+01 0.35087683489E+01 0.33994487768E+01
 0.32848436114E+01 0.31715193429E+01 0.30658516810E+01 0.29730895655E+01 0.28967077278E+01
 0.28382398594E+01 0.27976266059E+01 0.27739336583E+01 0.27661722188E+01 0.27739336583E+01
 0.27976266059E+01 0.28382398594E+01 0.28967077278E+01 0.29730895655E+01 0.30658516810E+01
 0.31715193429E+01 0.32848436114E+01 0.33994487768E+01 0.35087683489E+01 0.36069996563E+01
 0.36898202206E+01 0.37546897076E+01 0.38006825664E+01 0.38279378379E+01 0.39185246086E+01
 0.38547347514E+01 0.37756081073E+01 0.36855861052E+01 0.35880070832E+01 0.34853716265E+01
 0.33798839239E+01 0.32739833153E+01 0.31706357102E+01 0.30732808002E+01 0.29854726018E+01
 0.29103666790E+01 0.28502664147E+01 0.28064203431E+01 0.27791634700E+01 0.27683541751E+01
 0.27739336583E+01 0.27963758856E+01 0.28368199468E+01 0.28967730879E+01 0.29774156225E+01
 0.30786896086E+01 0.31984585571E+01 0.33320349390E+01 0.34722714972E+01 0.36102420291E+01
 0.37363709409E+01 0.38417659718E+01 0.39194760696E+01 0.39654156200E+01 0.39787531168E+01
 0.39616663911E+01 0.41624970200E+01 0.40419977405E+01 0.39034543002E+01 0.37571837189E+01
 0.36115506622E+01 0.34723826855E+01 0.33431253765E+01 0.32254821190E+01 0.31201965417E+01
 0.30276992394E+01 0.29484851049E+01 0.28832312318E+01 0.28327553772E+01 0.27979398367E+01
 0.27797185347E+01 0.27791634700E+01 0.27976266059E+01 0.28368199468E+01 0.28986878142E+01
 0.29849730572E+01 0.30964984246E+01 0.32323236062E+01 0.33890251954E+01 0.35603355656E+01
 0.37372788052E+01 0.39088146487E+01 0.40629043659E+01 0.41878654044E+01 0.42738555423E+01
 0.43142812751E+01 0.43068582869E+01 0.42540244121E+01 0.45585013002E+01 0.43850088855E+01
 0.41836470612E+01 0.39708886878E+01 0.37617476875E+01 0.35676867291E+01 0.33957444331E+01
 0.32487827774E+01 0.31265137017E+01 0.30268296999E+01 0.29470513251E+01 0.28848902822E+01
 0.28390735986E+01 0.28096391759E+01 0.27979398367E+01 0.28064203431E+01 0.28382398594E+01
 0.28967730879E+01 0.29849730572E+01 0.31045958080E+01 0.32553917851E+01 0.34344735519E+01
 0.36360601838E+01 0.38516569822E+01 0.40735123889E+01 0.42989646005E+01 0.45116842698E+01
 0.46853956561E+01 0.47956815167E+01 0.48299469474E+01 0.47915271893E+01 0.46956847089E+01
 0.52286146412E+01 0.49040931704E+01 0.46059342165E+01 0.43237289902E+01 0.40417729329E+01
 0.37767112134E+01 0.35425188738E+01 0.33464160950E+01 0.31894514296E+01 0.30682809760E+01
 0.29773954364E+01 0.29112005248E+01 0.28656206496E+01 0.28390735986E+01 0.28327553772E+01
 0.28502664147E+01 0.28967077278E+01 0.29774156225E+01 0.30964984246E+01 0.32553917851E+01
 0.34517853234E+01 0.36793306672E+01 0.39307952260E+01 0.42270410487E+01 0.45856229705E+01
 0.49871719386E+01 0.53824989901E+01 0.57074482709E+01 0.59027774042E+01 0.59337915312E+01
 0.58026131088E+01 0.55475375383E+01 0.67678823316E+01 0.60353361482E+01 0.53731951180E+01
 0.48451966418E+01 0.44449677379E+01 0.41030189233E+01 0.37921883691E+01 0.35277913696E+01
 0.33164760603E+01 0.31566157297E+01 0.30413351485E+01 0.29619929017E+01 0.29112005248E+01
 0.28848902822E+01 0.28832312318E+01 0.29103666790E+01 0.29730895655E+01 0.30786896086E+01
 0.32323236062E+01 0.34344735519E+01 0.36793306672E+01 0.39611242460E+01 0.43323739072E+01
 0.48495757765E+01 0.55155545614E+01 0.62795051241E+01 0.70459323222E+01 0.76941064513E+01
 0.81073765249E+01 0.82058716738E+01 0.79717473036E+01 0.74567486426E+01 0.98125912169E+01
 0.84363953055E+01 0.70956433526E+01 0.59605807495E+01 0.51170255363E+01 0.45493073822E+01
 0.41471927642E+01 0.38030664817E+01 0.35195344614E+01 0.33021022641E+01 0.31460636574E+01
 0.30413351485E+01 0.29773954364E+01 0.29470513251E+01 0.29484851049E+01 0.29854726018E+01
 0.30658516810E+01 0.31984585571E+01 0.33890251954E+01 0.36360601838E+01 0.39307952260E+01
 0.43323739072E+01 0.49573689020E+01 0.58628043431E+01 0.70330073418E+01 0.83793413683E+01
 0.97488381251E+01 0.10947046470E+02 0.11776977843E+02 0.12087384316E+02 0.11815552110E+02
 0.11008390734E+02 0.14819992530E+02 0.12633620592E+02 0.10346956452E+02 0.82570294296E+01
 0.65729902511E+01 0.53808957238E+01 0.46347111700E+01 0.41726634454E+01 0.38082611850E+01
 0.35167831595E+01 0.33021022641E+01 0.31566157297E+01 0.30682809760E+01 0.30268296999E+01
 0.30276992394E+01 0.30732808002E+01 0.31715193429E+01 0.33320349390E+01 0.35603355656E+01
 0.38516569822E+01 0.42270410487E+01 0.48495757765E+01 0.58628043431E+01 0.73245955707E+01
 0.91995023907E+01 0.11357196350E+02 0.13579507437E+02 0.15584741907E+02 0.17075214701E+02
 0.17802402490E+02 0.17631231603E+02 0.16580032959E+02 0.21994802101E+02 0.18921059673E+02
 0.15506161809E+02 0.12182967149E+02 0.93022392666E+01 0.70801718620E+01 0.55741157462E+01
 0.46842724023E+01 0.41808330004E+01 0.38082611850E+01 0.35195344614E+01 0.33164760603E+01
 0.31894514296E+01 0.31265137017E+01 0.31201965417E+01 0.31706357102E+01 0.32848436114E+01
 0.34722714972E+01 0.37372788052E+01 0.40735123889E+01 0.45856229705E+01 0.55155545614E+01
 0.70330073418E+01 0.91995023907E+01 0.11960509411E+02 0.15143007471E+02 0.18459953773E+02
 0.21533648857E+02 0.23949549795E+02 0.25338250083E+02 0.25464479313E+02 0.24291426004E+02
 0.31279523439E+02 0.27331519802E+02 0.22703317626E+02 0.17965893835E+02 0.13619339791E+02
 0.10024433412E+02 0.73665983401E+01 0.56450277277E+01 0.46842724023E+01 0.41726634454E+01
 0.38030664817E+01 0.35277913696E+01 0.33464160950E+01 0.32487827774E+01 0.32254821190E+01
 0.32739833153E+01 0.33994487768E+01 0.36102420291E+01 0.39088146487E+01 0.42989646005E+01
 0.49871719386E+01 0.62795051241E+01 0.83793413683E+01 0.11357196350E+02 0.15143007471E+02
 0.19523720805E+02 0.24144660356E+02 0.28529170134E+02 0.32135062965E+02 0.34451664689E+02
 0.35115777245E+02 0.34006273765E+02 0.42366071149E+02 0.37645564984E+02 0.31816768110E+02
 0.25588874705E+02 0.19614636380E+02 0.14404359176E+02 0.10281739656E+02 0.73665983401E+01
 0.55741157462E+01 0.46347111700E+01 0.41471927642E+01 0.37921883691E+01 0.35425188738E+01
 0.33957444331E+01 0.33431253765E+01 0.33798839239E+01 0.35087683489E+01 0.37363709409E+01
 0.40629043659E+01 0.45116842698E+01 0.53824989901E+01 0.70459323222E+01 0.97488381251E+01
 0.13579507437E+02 0.18459953773E+02 0.24144660356E+02 0.30218876679E+02 0.36111675642E+02
 0.41149956747E+02 0.44666401364E+02 0.46142697926E+02 0.45340291971E+02 0.54687776105E+02
 0.49393025995E+02 0.42480403919E+02 0.34794812227E+02 0.27145067186E+02 0.20193711673E+02
 0.14404359176E+02 0.10024433412E+02 0.70801718620E+01 0.53808957238E+01 0.45493073822E+01
 0.41030189233E+01 0.37767112134E+01 0.35676867291E+01 0.34723826855E+01 0.34853716265E+01
 0.36069996563E+01 0.38417659718E+01 0.41878654044E+01 0.46853956561E+01 0.57074482709E+01
 0.76941064513E+01 0.10947046470E+02 0.15584741907E+02 0.21533648857E+02 0.28529170134E+02
 0.36111675642E+02 0.43630601810E+02 0.50289791061E+02 0.55259169100E+02 0.57841939128E+02
 0.57645498017E+02 0.67392561920E+02 0.61830882923E+02 0.54072412475E+02 0.45085650827E+02
 0.35836807701E+02 0.27145067186E+02 0.19614636380E+02 0.13619339791E+02 0.93022392666E+01
 0.65729902511E+01 0.51170255363E+01 0.44449677379E+01 0.40417729329E+01 0.37617476875E+01
 0.36115506622E+01 0.35880070832E+01 0.36898202206E+01 0.39194760696E+01 0.42738555423E+01
 0.47956815167E+01 0.59027774042E+01 0.81073765249E+01 0.11776977843E+02 0.17075214701E+02
 0.23949549795E+02 0.32135062965E+02 0.41149956747E+02 0.50289791061E+02 0.58657957545E+02
 0.65271050031E+02 0.69241605631E+02 0.69988412482E+02 0.79347741776E+02 0.73931866719E+02
 0.65700318231E+02 0.55713627131E+02 0.45085650827E+02 0.34794812227E+02 0.25588874705E+02
 0.17965893835E+02 0.12182967149E+02 0.82570294296E+01 0.59605807495E+01 0.48451966418E+01
 0.43237289902E+01 0.39708886878E+01 0.37571837189E+01 0.36855861052E+01 0.37546897076E+01
 0.39654156200E+01 0.43142812751E+01 0.48299469474E+01 0.59337915312E+01 0.82058716738E+01
 0.12087384316E+02 0.17802402490E+02 0.25338250083E+02 0.34451664689E+02 0.44666401364E+02
 0.55259169100E+02 0.65271050031E+02 0.73595415777E+02 0.79162573143E+02 0.81181245194E+02
 0.89241554497E+02 0.84447900363E+02 0.76235486045E+02 0.65700318231E+02 0.54072412475E+02
 0.42480403919E+02 0.31816768110E+02 0.22703317626E+02 0.15506161809E+02 0.10346956452E+02
 0.70956433526E+01 0.53731951180E+01 0.46059342165E+01 0.41836470612E+01 0.39034543002E+01
 0.37756081073E+01 0.38006825664E+01 0.39787531168E+01 0.43068582869E+01 0.47915271893E+01
 0.58026131088E+01 0.79717473036E+01 0.11815552110E+02 0.17631231603E+02 0.25464479313E+02
 0.35115777245E+02 0.46142697926E+02 0.57841939128E+02 0.69241605631E+02 0.79162573143E+02
 0.86388448981E+02 0.89922043277E+02 0.95805778746E+02 0.92090771333E+02 0.84447900363E+02
 0.73931866719E+02 0.61830882923E+02 0.49393025995E+02 0.37645564984E+02 0.27331519802E+02
 0.18921059673E+02 0.12633620592E+02 0.84363953055E+01 0.60353361482E+01 0.49040931704E+01
 0.43850088855E+01 0.40419977405E+01 0.38547347514E+01 0.38279378379E+01 0.39616663911E+01
 0.42540244121E+01 0.46956847089E+01 0.55475375383E+01 0.74567486426E+01 0.11008390734E+02
 0.16580032959E+02 0.24291426004E+02 0.34006273765E+02 0.45340291971E+02 0.57645498017E+02
 0.69988412482E+02 0.81181245194E+02 0.89922043277E+02 0.95044757228E+02 0.95805778746E+02
 0.95044757228E+02 0.89922043277E+02 0.81181245194E+02 0.69988412482E+02 0.57645498017E+02
 0.45340291971E+02 0.34006273765E+02 0.24291426004E+02 0.16580032959E+02 0.11008390734E+02
 0.74567486426E+01 0.55475375383E+01 0.46956847089E+01 0.42540244121E+01 0.39616663911E+01
 0.38279378379E+01 0.38547347514E+01 0.40419977405E+01 0.43850088855E+01 0.49040931704E+01
 0.60353361482E+01 0.84363953055E+01 0.12633620592E+02 0.18921059673E+02 0.27331519802E+02
 0.37645564984E+02 0.49393025995E+02 0.61830882923E+02 0.73931866719E+02 0.84447900363E+02
 0.92090771333E+02 0.95044757228E+02 0.95805777905E+02 0.92090769718E+02 0.84447898115E+02
 0.73931864030E+02 0.61830880014E+02 0.49393023088E+02 0.37645562278E+02 0.27331517452E+02
 0.18921057779E+02 0.12633619189E+02 0.84363943700E+01 0.60353356076E+01 0.49040929207E+01
 0.43850088126E+01 0.40419977420E+01 0.38547347561E+01 0.38279378195E+01 0.39616663739E+01
 0.42540244668E+01 0.46956849391E+01 0.55475380597E+01 0.74567495584E+01 0.11008392110E+02
 0.16580034804E+02 0.24291428258E+02 0.34006276299E+02 0.45340294598E+02 0.57645500515E+02
 0.69988414619E+02 0.81181246758E+02 0.89922044105E+02 0.89922043277E+02 0.92090769718E+02
 0.89922041831E+02 0.83739213082E+02 0.74419423238E+02 0.63158210402E+02 0.51195459918E+02
 0.39605776644E+02 0.29200537344E+02 0.20519197984E+02 0.13850283639E+02 0.92367247074E+01
 0.64662761184E+01 0.50854281937E+01 0.44751853614E+01 0.40947113795E+01 0.38617448642E+01
 0.37840742553E+01 0.38617448297E+01 0.40947113923E+01 0.44751855702E+01 0.50854287869E+01
 0.64662772885E+01 0.92367266114E+01 0.13850286362E+02 0.20519201511E+02 0.29200541547E+02
 0.39605781282E+02 0.51195464661E+02 0.63158214862E+02 0.74419427019E+02 0.83739215829E+02
 0.81181245194E+02 0.84447898115E+02 0.83739213082E+02 0.79162571521E+02 0.71382189290E+02
 0.61437026461E+02 0.50489146375E+02 0.39603146879E+02 0.29619771256E+02 0.21122615681E+02
 0.14450409453E+02 0.97060922813E+01 0.67502184165E+01 0.52062166553E+01 0.45161013838E+01
 0.41129213184E+01 0.38461565193E+01 0.37252832983E+01 0.37499639178E+01 0.39206467940E+01
 0.42362007633E+01 0.46948721179E+01 0.56042921873E+01 0.75716944482E+01 0.11107837472E+02
 0.16515258504E+02 0.23851135108E+02 0.32929488047E+02 0.43324151814E+02 0.54356624285E+02
 0.65095384441E+02 0.74419426238E+02 0.69988412482E+02 0.73931864030E+02 0.74419423238E+02
 0.71382189290E+02 0.65271048727E+02 0.56932022533E+02 0.47393533035E+02 0.37653832348E+02
 0.28538145108E+02 0.20642483827E+02 0.14332485370E+02 0.97519787307E+01 0.68201555636E+01
 0.52331745962E+01 0.45042523539E+01 0.40923226188E+01 0.38058997492E+01 0.36531121388E+01
 0.36327236264E+01 0.37443361192E+01 0.39904797574E+01 0.43666194675E+01 0.49443500887E+01
 0.62010601513E+01 0.86742511665E+01 0.12743746521E+02 0.18568014310E+02 0.26069279542E+02
 0.34936990630E+02 0.44625847311E+02 0.54356623605E+02 0.63158213432E+02 0.57645498017E+02
 0.61830880014E+02 0.63158210402E+02 0.61437026461E+02 0.56932022533E+02 0.50289790470E+02
 0.42372269725E+02 0.34067100882E+02 0.26142051558E+02 0.19172438939E+02 0.13525699214E+02
 0.93660248575E+01 0.66543884002E+01 0.51496624674E+01 0.44376742981E+01 0.40322164575E+01
 0.37405429933E+01 0.35689181246E+01 0.35146865281E+01 0.35756080750E+01 0.37550157681E+01
 0.40567182967E+01 0.44757144023E+01 0.52101557816E+01 0.67607202910E+01 0.95582841944E+01
 0.13853888635E+02 0.19680377380E+02 0.26846007927E+02 0.34936990112E+02 0.43324150634E+02
 0.51195462779E+02 0.45340291971E+02 0.49393023088E+02 0.51195459918E+02 0.50489146375E+02
 0.47393533035E+02 0.42372269725E+02 0.36111675891E+02 0.29362422568E+02 0.22803040767E+02
 0.16959496489E+02 0.12177939853E+02 0.86237314769E+01 0.62828245514E+01 0.49639354692E+01
 0.43204767250E+01 0.39358554547E+01 0.36519462434E+01 0.34744604829E+01 0.33989680640E+01
 0.34209105881E+01 0.35423285372E+01 0.37705500535E+01 0.41090382994E+01 0.45688904721E+01
 0.54385669341E+01 0.71580268799E+01 0.10048163000E+02 0.14246020123E+02 0.19680377063E+02
 0.26069278719E+02 0.32929486592E+02 0.39605779180E+02 0.34006273765E+02 0.37645562278E+02
 0.39605776644E+02 0.39603146879E+02 0.37653832348E+02 0.34067100882E+02 0.29362422568E+02
 0.24144661256E+02 0.18984523437E+02 0.14338346565E+02 0.10513194145E+02 0.76602565730E+01
 0.57761957166E+01 0.47066922468E+01 0.41641303660E+01 0.38100640246E+01 0.35444498393E+01
 0.33724058709E+01 0.32876912295E+01 0.32834973179E+01 0.33594905265E+01 0.35229123487E+01
 0.37835305592E+01 0.41431849078E+01 0.46359368554E+01 0.55708889113E+01 0.73014586519E+01
 0.10048162876E+02 0.13853888205E+02 0.18568013397E+02 0.23851133602E+02 0.29200539454E+02
 0.24291426004E+02 0.27331517452E+02 0.29200537344E+02 0.29619771256E+02 0.28538145108E+02
 0.26142051558E+02 0.22803040767E+02 0.18984523437E+02 0.15143008617E+02 0.11654249684E+02
 0.87751291557E+01 0.66324930363E+01 0.52234280908E+01 0.44197483034E+01 0.39832036739E+01
 0.36642703842E+01 0.34245224710E+01 0.32665295974E+01 0.31826021695E+01 0.31642161738E+01
 0.32085156727E+01 0.33206177773E+01 0.35114482742E+01 0.37911952429E+01 0.41594955543E+01
 0.46606691086E+01 0.55708889265E+01 0.71580267819E+01 0.95582838131E+01 0.12743745695E+02
 0.16515257137E+02 0.20519199624E+02 0.16580032959E+02 0.18921057779E+02 0.20519197984E+02
 0.21122615681E+02 0.20642483827E+02 0.19172438939E+02 0.16959496489E+02 0.14338346565E+02
 0.11654249684E+02 0.91995033727E+01 0.71759884875E+01 0.56810010947E+01 0.47058839623E+01
 0.41406590605E+01 0.37894953144E+01 0.35091800421E+01 0.32999358768E+01 0.31615177341E+01
 0.30855015296E+01 0.30625101138E+01 0.30876935686E+01 0.31633916137E+01 0.32986942519E+01
 0.35058236314E+01 0.37936157536E+01 0.41594956285E+01 0.46359369523E+01 0.54385669387E+01
 0.67607200504E+01 0.86742505370E+01 0.11107836372E+02 0.13850284817E+02 0.11008390734E+02
 0.12633619189E+02 0.13850283639E+02 0.14450409453E+02 0.14332485370E+02 0.13525699214E+02
 0.12177939853E+02 0.10513194145E+02 0.87751291557E+01 0.71759884875E+01 0.58628049300E+01
 0.49019830199E+01 0.42762107036E+01 0.38884850701E+01 0.35946521636E+01 0.33553439524E+01
 0.31786484247E+01 0.30624149534E+01 0.29983782655E+01 0.29773145212E+01 0.29932917648E+01
 0.30461729345E+01 0.31420567077E+01 0.32915378094E+01 0.35058236942E+01 0.37911953819E+01
 0.41431850814E+01 0.45688905835E+01 0.52101557011E+01 0.62010597566E+01 0.75716936709E+01
 0.92367254727E+01 0.74567486426E+01 0.84363943700E+01 0.92367247074E+01 0.97060922813E+01
 0.97519787307E+01 0.93660248575E+01 0.86237314769E+01 0.76602565730E+01 0.66324930363E+01
 0.56810010947E+01 0.49019830199E+01 0.43323741010E+01 0.39454901872E+01 0.36567440132E+01
 0.34095611031E+01 0.32118692484E+01 0.30676567710E+01 0.29738837753E+01 0.29232736351E+01
 0.29076953088E+01 0.29211627604E+01 0.29618796425E+01 0.30330162532E+01 0.31420567227E+01
 0.32986943264E+01 0.35114484250E+01 0.37835307579E+01 0.41090384718E+01 0.44757144460E+01
 0.49443499058E+01 0.56042917209E+01 0.64662765511E+01 0.55475375383E+01 0.60353356076E+01
 0.64662761184E+01 0.67502184165E+01 0.68201555636E+01 0.66543884002E+01 0.62828245514E+01
 0.57761957166E+01 0.52234280908E+01 0.47058839623E+01 0.42762107036E+01 0.39454901872E+01
 0.36793306205E+01 0.34428643452E+01 0.32428226255E+01 0.30854988147E+01 0.29720993111E+01
 0.28995144058E+01 0.28620068600E+01 0.28532136355E+01 0.28680061267E+01 0.29039137131E+01
 0.29618796111E+01 0.30461729131E+01 0.31633916438E+01 0.33206178800E+01 0.35229125105E+01
 0.37705502246E+01 0.40567184035E+01 0.43666194365E+01 0.46948719028E+01 0.50854283896E+01
 0.46956847089E+01 0.49040929207E+01 0.50854281937E+01 0.52062166553E+01 0.52331745962E+01
 0.51496624674E+01 0.49639354692E+01 0.47066922468E+01 0.44197483034E+01 0.41406590605E+01
 0.38884850701E+01 0.36567440132E+01 0.34428643452E+01 0.32553916676E+01 0.31002819574E+01
 0.29802251681E+01 0.28948418698E+01 0.28414209811E+01 0.28159345659E+01 0.28140760900E+01
 0.28321867711E+01 0.28680060728E+01 0.29211626727E+01 0.29932916795E+01 0.30876935238E+01
 0.32085156929E+01 0.33594906115E+01 0.35423286594E+01 0.37550158802E+01 0.39904798085E+01
 0.42362007164E+01 0.44751854177E+01 0.42540244121E+01 0.43850088126E+01 0.44751853614E+01
 0.45161013838E+01 0.45042523539E+01 0.44376742981E+01 0.43204767250E+01 0.41641303660E+01
 0.39832036739E+01 0.37894953144E+01 0.35946521636E+01 0.34095611031E+01 0.32428226255E+01
 0.31002819574E+01 0.29849729649E+01 0.28974844925E+01 0.28366378150E+01 0.28002662228E+01
 0.27858859213E+01 0.27911462905E+01 0.28140760398E+01 0.28532135342E+01 0.29076951736E+01
 0.29773143821E+01 0.30625100037E+01 0.31642161176E+01 0.32834973241E+01 0.34209106457E+01
 0.35756081574E+01 0.37443361933E+01 0.39206468318E+01 0.40947113805E+01 0.39616663911E+01
 0.40419977420E+01 0.40947113795E+01 0.41129213184E+01 0.40923226188E+01 0.40322164575E+01
 0.39358554547E+01 0.38100640246E+01 0.36642703842E+01 0.35091800421E+01 0.33553439524E+01
 0.32118692484E+01 0.30854988147E+01 0.29802251681E+01 0.28974844925E+01 0.28368198916E+01
 0.27967707577E+01 0.27756995101E+01 0.27723274954E+01 0.27858858893E+01 0.28159344912E+01
 0.28620067436E+01 0.29232734900E+01 0.29983781139E+01 0.30855013966E+01 0.31826020762E+01
 0.32876911870E+01 0.33989680709E+01 0.35146865715E+01 0.36327236864E+01 0.37499639744E+01
 0.38617448687E+01 0.38279378379E+01 0.38547347561E+01 0.38617448642E+01 0.38461565193E+01
 0.38058997492E+01 0.37405429933E+01 0.36519462434E+01 0.35444498393E+01 0.34245224710E+01
 0.32999358768E+01 0.31786484247E+01 0.30676567710E+01 0.29720993111E+01 0.28948418698E+01
 0.28366378150E+01 0.27967707577E+01 0.27739336127E+01 0.27670381684E+01 0.27756994959E+01
 0.28002661871E+01 0.28414209191E+01 0.28995143180E+01 0.29738836683E+01 0.30624148393E+01
 0.31615176277E+01 0.32665295127E+01 0.33724058175E+01 0.34744604637E+01 0.35689181350E+01
 0.36531121686E+01 0.37252833345E+01 0.37840742863E+01 0.38547347514E+01 0.38279378195E+01
 0.37840742553E+01 0.37252832983E+01 0.36531121388E+01 0.35689181246E+01 0.34744604829E+01
 0.33724058709E+01 0.32665295974E+01 0.31615177341E+01 0.30624149534E+01 0.29738837753E+01
 0.28995144058E+01 0.28414209811E+01 0.28002662228E+01 0.27756995101E+01 0.27670381684E+01
 0.27739336056E+01 0.27967707480E+01 0.28366378033E+01 0.28948418534E+01 0.29720992859E+01
 0.30676567339E+01 0.31786483756E+01 0.32999358197E+01 0.34245224131E+01 0.35444497889E+01
 0.36519462074E+01 0.37405429746E+01 0.38058997458E+01 0.38461565244E+01 0.38617448687E+01
 0.40419977405E+01 0.39616663739E+01 0.38617448297E+01 0.37499639178E+01 0.36327236264E+01
 0.35146865281E+01 0.33989680640E+01 0.32876912295E+01 0.31826021695E+01 0.30855015296E+01
 0.29983782655E+01 0.29232736351E+01 0.28620068600E+01 0.28159345659E+01 0.27858859213E+01
 0.27723274954E+01 0.27756994959E+01 0.27967707480E+01 0.28368198995E+01 0.28974845216E+01
 0.29802252113E+01 0.30854988575E+01 0.32118692740E+01 0.33553439481E+01 0.35091800035E+01
 0.36642703172E+01 0.38100639432E+01 0.39358553763E+01 0.40322163970E+01 0.40923225839E+01