 vasp.5.4.1 24Jun15 (build Jul 19 2016 16:50:41) complex                        
  
 executed on           IFC91_ompi date 2019.10.17  11:15:50
 running on    4 total cores
 distrk:  each k-point on    4 cores,    1 groups
 distr:  one band on NCORES_PER_BAND=   1 cores,    4 groups


--------------------------------------------------------------------------------------------------------


 INCAR:
 POTCAR:    PAW_PBE Fe 06Sep2000                  
 POTCAR:    PAW_PBE Fe 06Sep2000                  
   VRHFIN =Fe:  d7 s1                                                           
   LEXCH  = PE                                                                  
   EATOM  =   594.3153 eV,   43.6809 Ry                                         
                                                                                
   TITEL  = PAW_PBE Fe 06Sep2000                                                
   LULTRA =        F    use ultrasoft PP ?                                      
   IUNSCR =        1    unscreen: 0-lin 1-nonlin 2-no                           
   RPACOR =    2.000    partial core radius                                     
   POMASS =   55.847; ZVAL   =    8.000    mass and valenz                      
   RCORE  =    2.300    outmost cutoff radius                                   
   RWIGS  =    2.460; RWIGS  =    1.302    wigner-seitz radius (au A)           
   ENMAX  =  267.882; ENMIN  =  200.911 eV                                      
   RCLOC  =    1.701    cutoff for local pot                                    
   LCOR   =        T    correct aug charges                                     
   LPAW   =        T    paw PP                                                  
   EAUG   =  511.368                                                            
   DEXC   =    0.000                                                            
   RMAX   =    2.356    core radius for proj-oper                               
   RAUG   =    1.300    factor for augmentation sphere                          
   RDEP   =    2.442    radius for radial grids                                 
   RDEPT  =    1.890    core radius for aug-charge                              
                                                                                
   Atomic configuration                                                         
    9 entries                                                                   
     n  l   j            E        occ.                                          
     1  0  0.50     -6993.8440   2.0000                                         
     2  0  0.50      -814.6047   2.0000                                         
     2  1  1.50      -693.3689   6.0000                                         
     3  0  0.50       -89.4732   2.0000                                         
     3  1  1.50       -55.6373   6.0000                                         
     3  2  2.50        -3.8151   7.0000                                         
     4  0  0.50        -4.2551   1.0000                                         
     4  1  1.50        -3.4015   0.0000                                         
     4  3  2.50        -1.3606   0.0000                                         
   Description                                                                  
     l       E           TYP  RCUT    TYP  RCUT                                 
     2     -3.8151135     23  2.300                                             
     2     -5.1756961     23  2.300                                             
     0     -4.2550963     23  2.300                                             
     0      7.2035603     23  2.300                                             
     1     -2.7211652     23  2.300                                             
     1     18.4316424     23  2.300                                             
  local pseudopotential read in
  partial core-charges read in
  partial kinetic energy density read in
  atomic valenz-charges read in
  non local Contribution for L=           2  read in
    real space projection operators read in
  non local Contribution for L=           2  read in
    real space projection operators read in
  non local Contribution for L=           0  read in
    real space projection operators read in
  non local Contribution for L=           0  read in
    real space projection operators read in
  non local Contribution for L=           1  read in
    real space projection operators read in
  non local Contribution for L=           1  read in
    real space projection operators read in
    PAW grid and wavefunctions read in
 
   number of l-projection  operators is LMAX  =           6
   number of lm-projection operators is LMMAX =          18
 
  PAW_PBE Fe 06Sep2000                  :
 energy of atom  1       EATOM= -594.3153
 kinetic energy error for atom=    0.0088 (will be added to EATOM!!)
 
 
 POSCAR: Fe BCC                                  
  positions in direct lattice
  No initial velocities read in
 exchange correlation table for  LEXCH =        8
   RHO(1)=    0.500       N(1)  =     2000
   RHO(2)=  100.500       N(2)  =     4000
 


--------------------------------------------------------------------------------------------------------


 ion  position               nearest neighbor table
   1  0.000  0.000  0.000-
 
  LATTYP: Found a body centered cubic cell.
 ALAT       =     2.8500000000
  
  Lattice vectors:
  
 A1 = (  -1.4250000000,   1.4250000000,   1.4250000000)
 A2 = (   1.4250000000,  -1.4250000000,   1.4250000000)
 A3 = (   1.4250000000,   1.4250000000,  -1.4250000000)


Analysis of symmetry for initial positions (statically):
=====================================================================
 Subroutine PRICEL returns:
 Original cell was already a primitive cell.
 

 Routine SETGRP: Setting up the symmetry group for a 
 body centered cubic supercell.


 Subroutine GETGRP returns: Found 48 space group operations
 (whereof 48 operations were pure point group operations)
 out of a pool of 48 trial point group operations.


The static configuration has the point symmetry O_h .


Analysis of symmetry for dynamics (positions and initial velocities):
=====================================================================
 Subroutine PRICEL returns:
 Original cell was already a primitive cell.
 

 Routine SETGRP: Setting up the symmetry group for a 
 body centered cubic supercell.


 Subroutine GETGRP returns: Found 48 space group operations
 (whereof 48 operations were pure point group operations)
 out of a pool of 48 trial point group operations.


The dynamic configuration has the point symmetry O_h .


Analysis of structural, dynamic, and magnetic symmetry:
=====================================================================
 Subroutine PRICEL returns:
 Original cell was already a primitive cell.
 

 Routine SETGRP: Setting up the symmetry group for a 
 body centered cubic supercell.


 Subroutine GETGRP returns: Found 48 space group operations
 (whereof 48 operations were pure point group operations)
 out of a pool of 48 trial point group operations.


The magnetic configuration has the point symmetry O_h .


 Subroutine INISYM returns: Found 48 space group operations
 (whereof 48 operations are pure point group operations),
 and found     1 'primitive' translations

 
 
 KPOINTS: K-Points                                

Automatic generation of k-mesh.
Space group operators:
 irot       det(A)        alpha          n_x          n_y          n_z        tau_x        tau_y        tau_z
    1     1.000000     0.000000     1.000000     0.000000     0.000000     0.000000     0.000000     0.000000
    2    -1.000000     0.000000     1.000000     0.000000     0.000000     0.000000     0.000000     0.000000
    3     1.000000   120.000000    -0.577350    -0.577350    -0.577350     0.000000     0.000000     0.000000
    4    -1.000000   120.000000    -0.577350    -0.577350    -0.577350     0.000000     0.000000     0.000000
    5     1.000000   120.000000     0.577350     0.577350     0.577350     0.000000     0.000000     0.000000
    6    -1.000000   120.000000     0.577350     0.577350     0.577350     0.000000     0.000000     0.000000
    7     1.000000    90.000000     0.000000     0.000000    -1.000000     0.000000     0.000000     0.000000
    8    -1.000000    90.000000     0.000000     0.000000    -1.000000     0.000000     0.000000     0.000000
    9     1.000000   180.000000     0.000000     0.707107     0.707107     0.000000     0.000000     0.000000
   10    -1.000000   180.000000     0.000000     0.707107     0.707107     0.000000     0.000000     0.000000
   11     1.000000    90.000000     0.000000     1.000000     0.000000     0.000000     0.000000     0.000000
   12    -1.000000    90.000000     0.000000     1.000000     0.000000     0.000000     0.000000     0.000000
   13     1.000000   179.999999     0.000000     0.000000     1.000000     0.000000     0.000000     0.000000
   14    -1.000000   179.999999     0.000000     0.000000     1.000000     0.000000     0.000000     0.000000
   15     1.000000   120.000000    -0.577350     0.577350     0.577350     0.000000     0.000000     0.000000
   16    -1.000000   120.000000    -0.577350     0.577350     0.577350     0.000000     0.000000     0.000000
   17     1.000000   120.000000    -0.577350     0.577350    -0.577350     0.000000     0.000000     0.000000
   18    -1.000000   120.000000    -0.577350     0.577350    -0.577350     0.000000     0.000000     0.000000
   19     1.000000    90.000000     0.000000     0.000000     1.000000     0.000000     0.000000     0.000000
   20    -1.000000    90.000000     0.000000     0.000000     1.000000     0.000000     0.000000     0.000000
   21     1.000000    90.000000    -1.000000     0.000000     0.000000     0.000000     0.000000     0.000000
   22    -1.000000    90.000000    -1.000000     0.000000     0.000000     0.000000     0.000000     0.000000
   23     1.000000   180.000000     0.707107     0.000000     0.707107     0.000000     0.000000     0.000000
   24    -1.000000   180.000000     0.707107     0.000000     0.707107     0.000000     0.000000     0.000000
   25     1.000000   120.000000     0.577350    -0.577350     0.577350     0.000000     0.000000     0.000000
   26    -1.000000   120.000000     0.577350    -0.577350     0.577350     0.000000     0.000000     0.000000
   27     1.000000   120.000000    -0.577350    -0.577350     0.577350     0.000000     0.000000     0.000000
   28    -1.000000   120.000000    -0.577350    -0.577350     0.577350     0.000000     0.000000     0.000000
   29     1.000000   180.000000     1.000000     0.000000     0.000000     0.000000     0.000000     0.000000
   30    -1.000000   180.000000     1.000000     0.000000     0.000000     0.000000     0.000000     0.000000
   31     1.000000    90.000000     0.000000    -1.000000     0.000000     0.000000     0.000000     0.000000
   32    -1.000000    90.000000     0.000000    -1.000000     0.000000     0.000000     0.000000     0.000000
   33     1.000000   180.000000     0.707107     0.707107     0.000000     0.000000     0.000000     0.000000
   34    -1.000000   180.000000     0.707107     0.707107     0.000000     0.000000     0.000000     0.000000
   35     1.000000    90.000000     1.000000     0.000000     0.000000     0.000000     0.000000     0.000000
   36    -1.000000    90.000000     1.000000     0.000000     0.000000     0.000000     0.000000     0.000000
   37     1.000000   120.000000     0.577350    -0.577350    -0.577350     0.000000     0.000000     0.000000
   38    -1.000000   120.000000     0.577350    -0.577350    -0.577350     0.000000     0.000000     0.000000
   39     1.000000   180.000000     0.000000     1.000000     0.000000     0.000000     0.000000     0.000000
   40    -1.000000   180.000000     0.000000     1.000000     0.000000     0.000000     0.000000     0.000000
   41     1.000000   120.000000     0.577350     0.577350    -0.577350     0.000000     0.000000     0.000000
   42    -1.000000   120.000000     0.577350     0.577350    -0.577350     0.000000     0.000000     0.000000
   43     1.000000   180.000000     0.000000    -0.707107     0.707107     0.000000     0.000000     0.000000
   44    -1.000000   180.000000     0.000000    -0.707107     0.707107     0.000000     0.000000     0.000000
   45     1.000000   180.000000     0.707107    -0.707107     0.000000     0.000000     0.000000     0.000000
   46    -1.000000   180.000000     0.707107    -0.707107     0.000000     0.000000     0.000000     0.000000
   47     1.000000   180.000000     0.707107     0.000000    -0.707107     0.000000     0.000000     0.000000
   48    -1.000000   180.000000     0.707107     0.000000    -0.707107     0.000000     0.000000     0.000000
 
 Subroutine IBZKPT returns following result:
 ===========================================
 
 Found     26 irreducible k-points:
 
 Following reciprocal coordinates:
            Coordinates               Weight
  0.062500  0.062500  0.062500      8.000000
  0.187500  0.062500  0.062500     24.000000
  0.312500  0.062500  0.062500     24.000000
  0.437500  0.062500  0.062500     12.000000
 -0.062500  0.062500  0.062500      6.000000
  0.187500  0.187500  0.062500     24.000000
  0.312500  0.187500  0.062500     48.000000
 -0.187500  0.187500  0.062500     24.000000
  0.312500  0.312500  0.062500      8.000000
 -0.312500  0.312500  0.062500     24.000000
 -0.187500  0.312500  0.062500     24.000000
 -0.437500  0.437500  0.062500     24.000000
 -0.312500  0.437500  0.062500     48.000000
 -0.437500 -0.437500  0.062500     24.000000
 -0.312500 -0.437500  0.062500     24.000000
  0.187500  0.187500  0.187500      8.000000
  0.312500  0.187500  0.187500     12.000000
 -0.187500  0.187500  0.187500      6.000000
 -0.312500  0.312500  0.187500     24.000000
 -0.437500  0.437500  0.187500     24.000000
 -0.312500  0.437500  0.187500     24.000000
 -0.437500 -0.437500  0.187500     24.000000
 -0.312500  0.312500  0.312500      6.000000
 -0.437500  0.437500  0.312500     24.000000
 -0.437500 -0.437500  0.312500      8.000000
 -0.437500  0.437500  0.437500      6.000000
 
 Following cartesian coordinates:
            Coordinates               Weight
  0.125000  0.125000  0.125000      8.000000
  0.125000  0.250000  0.250000     24.000000
  0.125000  0.375000  0.375000     24.000000
  0.125000  0.500000  0.500000     12.000000
  0.125000  0.000000  0.000000      6.000000
  0.250000  0.250000  0.375000     24.000000
  0.250000  0.375000  0.500000     48.000000
  0.250000 -0.125000  0.000000     24.000000
  0.375000  0.375000  0.625000      8.000000
  0.375000 -0.250000  0.000000     24.000000
  0.375000 -0.125000  0.125000     24.000000
  0.500000 -0.375000  0.000000     24.000000
  0.500000 -0.250000  0.125000     48.000000
 -0.375000 -0.375000 -0.875000     24.000000
 -0.375000 -0.250000 -0.750000     24.000000
  0.375000  0.375000  0.375000      8.000000
  0.375000  0.500000  0.500000     12.000000
  0.375000  0.000000  0.000000      6.000000
  0.500000 -0.125000  0.000000     24.000000
  0.625000 -0.250000  0.000000     24.000000
  0.625000 -0.125000  0.125000     24.000000
 -0.250000 -0.250000 -0.875000     24.000000
  0.625000  0.000000  0.000000      6.000000
  0.750000 -0.125000  0.000000     24.000000
 -0.125000 -0.125000 -0.875000      8.000000
  0.875000  0.000000  0.000000      6.000000
 
 TETIRR: Found    534 inequivalent tetrahedra from     3072


--------------------------------------------------------------------------------------------------------




 Dimension of arrays:
   k-points           NKPTS =     26   k-points in BZ     NKDIM =     26   number of bands    NBANDS=     12
   number of dos      NEDOS =    301   number of ions     NIONS =      1
   non local maximal  LDIM  =      6   non local SUM 2l+1 LMDIM =     18
   total plane-waves  NPLWV =   4096
   max r-space proj   IRMAX =      1   max aug-charges    IRDMAX=  12804
   dimension x,y,z NGX =    16 NGY =   16 NGZ =   16
   dimension x,y,z NGXF=    32 NGYF=   32 NGZF=   32
   support grid    NGXF=    32 NGYF=   32 NGZF=   32
   ions per type =               1
 NGX,Y,Z   is equivalent  to a cutoff of  10.78, 10.78, 10.78 a.u.
 NGXF,Y,Z  is equivalent  to a cutoff of  21.55, 21.55, 21.55 a.u.


 I would recommend the setting:
   dimension x,y,z NGX =    16 NGY =   16 NGZ =   16
 SYSTEM =  Fe BCC                                  
 POSCAR =  Fe BCC                                  

 Startparameter for this run:
   NWRITE =      2    write-flag & timer
   PREC   = accura    normal or accurate (medium, high low for compatibility)
   ISTART =      0    job   : 0-new  1-cont  2-samecut
   ICHARG =      2    charge: 1-file 2-atom 10-const
   ISPIN  =      2    spin polarized calculation?
   LNONCOLLINEAR =      F non collinear calculations
   LSORBIT =      F    spin-orbit coupling
   INIWAV =      1    electr: 0-lowe 1-rand  2-diag
   LASPH  =      F    aspherical Exc in radial PAW
   METAGGA=      F    non-selfconsistent MetaGGA calc.

 Electronic Relaxation 1
   ENCUT  =  400.0 eV  29.40 Ry    5.42 a.u.   4.02  4.02  4.02*2*pi/ulx,y,z
   ENINI  =  400.0     initial cutoff
   ENAUG  =  511.4 eV  augmentation charge cutoff
   NELM   =     60;   NELMIN=  2; NELMDL= -5     # of ELM steps 
   EDIFF  = 0.1E-05   stopping-criterion for ELM
   LREAL  =      F    real-space projection
   NLSPLINE    = F    spline interpolate recip. space projectors
   LCOMPAT=      F    compatible to vasp.4.4
   GGA_COMPAT  = T    GGA compatible to vasp.4.4-vasp.4.6
   LMAXPAW     = -100 max onsite density
   LMAXMIX     =    2 max onsite mixed and CHGCAR
   VOSKOWN=      0    Vosko Wilk Nusair interpolation
   ROPT   =    0.00000
 Ionic relaxation
   EDIFFG = 0.1E-04   stopping-criterion for IOM
   NSW    =      0    number of steps for IOM
   NBLOCK =      1;   KBLOCK =      1    inner block; outer block 
   IBRION =     -1    ionic relax: 0-MD 1-quasi-New 2-CG
   NFREE  =      0    steps in history (QN), initial steepest desc. (CG)
   ISIF   =      2    stress and relaxation
   IWAVPR =     10    prediction:  0-non 1-charg 2-wave 3-comb
   ISYM   =      2    0-nonsym 1-usesym 2-fastsym
   LCORR  =      T    Harris-Foulkes like correction to forces

   POTIM  = 0.5000    time-step for ionic-motion
   TEIN   =    0.0    initial temperature
   TEBEG  =    0.0;   TEEND  =   0.0 temperature during run
   SMASS  =  -3.00    Nose mass-parameter (am)
   estimated Nose-frequenzy (Omega)   =  0.10E-29 period in steps =****** mass=  -0.139E-27a.u.
   SCALEE = 1.0000    scale energy and forces
   NPACO  =    256;   APACO  = 16.0  distance and # of slots for P.C.
   PSTRESS=    0.0 pullay stress

  Mass of Ions in am
   POMASS =  55.85
  Ionic Valenz
   ZVAL   =   8.00
  Atomic Wigner-Seitz radii
   RWIGS  =  -1.00
  virtual crystal weights 
   VCA    =   1.00
   NELECT =       8.0000    total number of electrons
   NUPDOWN=      -1.0000    fix difference up-down

 DOS related values:
   EMIN   =  10.00;   EMAX   =-10.00  energy-range for DOS
   EFERMI =   0.00
   ISMEAR =    -5;   SIGMA  =   0.20  broadening in eV -4-tet -1-fermi 0-gaus

 Electronic relaxation 2 (details)
   IALGO  =     38    algorithm
   LDIAG  =      T    sub-space diagonalisation (order eigenvalues)
   LSUBROT=      F    optimize rotation matrix (better conditioning)
   TURBO    =      0    0=normal 1=particle mesh
   IRESTART =      0    0=no restart 2=restart with 2 vectors
   NREBOOT  =      0    no. of reboots
   NMIN     =      0    reboot dimension
   EREF     =   0.00    reference energy to select bands
   IMIX   =      4    mixing-type and parameters
     AMIX     =   0.40;   BMIX     =  1.00
     AMIX_MAG =   1.60;   BMIX_MAG =  1.00
     AMIN     =   0.10
     WC   =   100.;   INIMIX=   1;  MIXPRE=   1;  MAXMIX= -45

 Intra band minimization:
   WEIMIN = 0.0000     energy-eigenvalue tresh-hold
   EBREAK =  0.21E-07  absolut break condition
   DEPER  =   0.30     relativ break condition  

   TIME   =   0.40     timestep for ELM

  volume/ion in A,a.u.               =      11.57        78.11
  Fermi-wavevector in a.u.,A,eV,Ry     =   1.447449  2.735282 28.505687  2.095109
  Thomas-Fermi vector in A             =   2.565403
 
 Write flags
   LWAVE  =      T    write WAVECAR
   LCHARG =      T    write CHGCAR
   LVTOT  =      F    write LOCPOT, total local potential
   LVHAR  =      F    write LOCPOT, Hartree potential only
   LELF   =      F    write electronic localiz. function (ELF)
   LORBIT =     11    0 simple, 1 ext, 2 COOP (PROOUT)


 Dipole corrections
   LMONO  =      F    monopole corrections only (constant potential shift)
   LDIPOL =      F    correct potential (dipole corrections)
   IDIPOL =      0    1-x, 2-y, 3-z, 4-all directions 
   EPSILON=  1.0000000 bulk dielectric constant

 Exchange correlation treatment:
   GGA     =    --    GGA type
   LEXCH   =     8    internal setting for exchange type
   VOSKOWN=      0    Vosko Wilk Nusair interpolation
   LHFCALC =     F    Hartree Fock is set to
   LHFONE  =     F    Hartree Fock one center treatment
   AEXX    =    0.0000 exact exchange contribution

 Linear response parameters
   LEPSILON=     F    determine dielectric tensor
   LRPA    =     F    only Hartree local field effects (RPA)
   LNABLA  =     F    use nabla operator in PAW spheres
   LVEL    =     F    velocity operator in full k-point grid
   LINTERFAST=   F  fast interpolation
   KINTER  =     0    interpolate to denser k-point grid
   CSHIFT  =0.1000    complex shift for real part using Kramers Kronig
   OMEGAMAX=  -1.0    maximum frequency
   DEG_THRESHOLD= 0.2000000E-02 threshold for treating states as degnerate
   RTIME   =    0.100 relaxation time in fs

 Orbital magnetization related:
   ORBITALMAG=     F  switch on orbital magnetization
   LCHIMAG   =     F  perturbation theory with respect to B field
   DQ        =  0.001000  dq finite difference perturbation B field



--------------------------------------------------------------------------------------------------------


 Static calculation
 charge density and potential will be updated during run
 spin polarized calculation
 Variant of blocked Davidson
 Davidson routine will perform the subspace rotation
 perform sub-space diagonalisation
    after iterative eigenvector-optimisation
 modified Broyden-mixing scheme, WC =      100.0
 initial mixing is a Kerker type mixing with AMIX =  0.4000 and BMIX =      1.0000
 Hartree-type preconditioning will be used
 using additional bands            8
 reciprocal scheme for non local part
 use partial core corrections
 calculate Harris-corrections to forces 
   (improved forces if not selfconsistent)
 use gradient corrections 
 use of overlap-Matrix (Vanderbilt PP)
 Fermi weights with tetrahedron method with Bloechl corrections


--------------------------------------------------------------------------------------------------------


  energy-cutoff  :      400.00
  volume of cell :       11.57
      direct lattice vectors                 reciprocal lattice vectors
    -1.425000000  1.425000000  1.425000000     0.000000000  0.350877193  0.350877193
     1.425000000 -1.425000000  1.425000000     0.350877193  0.000000000  0.350877193
     1.425000000  1.425000000 -1.425000000     0.350877193  0.350877193  0.000000000

  length of vectors
     2.468172401  2.468172401  2.468172401     0.496215285  0.496215285  0.496215285


 
 k-points in units of 2pi/SCALE and weight: K-Points                                
   0.12500000  0.12500000  0.12500000       0.016
   0.12500000  0.25000000  0.25000000       0.047
   0.12500000  0.37500000  0.37500000       0.047
   0.12500000  0.50000000  0.50000000       0.023
   0.12500000  0.00000000  0.00000000       0.012
   0.25000000  0.25000000  0.37500000       0.047
   0.25000000  0.37500000  0.50000000       0.094
   0.25000000 -0.12500000  0.00000000       0.047
   0.37500000  0.37500000  0.62500000       0.016
   0.37500000 -0.25000000  0.00000000       0.047
   0.37500000 -0.12500000  0.12500000       0.047
   0.50000000 -0.37500000  0.00000000       0.047
   0.50000000 -0.25000000  0.12500000       0.094
  -0.37500000 -0.37500000 -0.87500000       0.047
  -0.37500000 -0.25000000 -0.75000000       0.047
   0.37500000  0.37500000  0.37500000       0.016
   0.37500000  0.50000000  0.50000000       0.023
   0.37500000  0.00000000  0.00000000       0.012
   0.50000000 -0.12500000  0.00000000       0.047
   0.62500000 -0.25000000  0.00000000       0.047
   0.62500000 -0.12500000  0.12500000       0.047
  -0.25000000 -0.25000000 -0.87500000       0.047
   0.62500000  0.00000000  0.00000000       0.012
   0.75000000 -0.12500000  0.00000000       0.047
  -0.12500000 -0.12500000 -0.87500000       0.016
   0.87500000  0.00000000  0.00000000       0.012
 
 k-points in reciprocal lattice and weights: K-Points                                
   0.06250000  0.06250000  0.06250000       0.016
   0.18750000  0.06250000  0.06250000       0.047
   0.31250000  0.06250000  0.06250000       0.047
   0.43750000  0.06250000  0.06250000       0.023
  -0.06250000  0.06250000  0.06250000       0.012
   0.18750000  0.18750000  0.06250000       0.047
   0.31250000  0.18750000  0.06250000       0.094
  -0.18750000  0.18750000  0.06250000       0.047
   0.31250000  0.31250000  0.06250000       0.016
  -0.31250000  0.31250000  0.06250000       0.047
  -0.18750000  0.31250000  0.06250000       0.047
  -0.43750000  0.43750000  0.06250000       0.047
  -0.31250000  0.43750000  0.06250000       0.094
  -0.43750000 -0.43750000  0.06250000       0.047
  -0.31250000 -0.43750000  0.06250000       0.047
   0.18750000  0.18750000  0.18750000       0.016
   0.31250000  0.18750000  0.18750000       0.023
  -0.18750000  0.18750000  0.18750000       0.012
  -0.31250000  0.31250000  0.18750000       0.047
  -0.43750000  0.43750000  0.18750000       0.047
  -0.31250000  0.43750000  0.18750000       0.047
  -0.43750000 -0.43750000  0.18750000       0.047
  -0.31250000  0.31250000  0.31250000       0.012
  -0.43750000  0.43750000  0.31250000       0.047
  -0.43750000 -0.43750000  0.31250000       0.016
  -0.43750000  0.43750000  0.43750000       0.012
 
 position of ions in fractional coordinates (direct lattice) 
   0.00000000  0.00000000  0.00000000
 
 position of ions in cartesian coordinates  (Angst):
   0.00000000  0.00000000  0.00000000
 


--------------------------------------------------------------------------------------------------------


 k-point  1 :   0.0625 0.0625 0.0625  plane waves:     213
 k-point  2 :   0.1875 0.0625 0.0625  plane waves:     204
 k-point  3 :   0.3125 0.0625 0.0625  plane waves:     203
 k-point  4 :   0.4375 0.0625 0.0625  plane waves:     208
 k-point  5 :  -0.0625 0.0625 0.0625  plane waves:     213
 k-point  6 :   0.1875 0.1875 0.0625  plane waves:     209
 k-point  7 :   0.3125 0.1875 0.0625  plane waves:     209
 k-point  8 :  -0.1875 0.1875 0.0625  plane waves:     209
 k-point  9 :   0.3125 0.3125 0.0625  plane waves:     210
 k-point 10 :  -0.3125 0.3125 0.0625  plane waves:     203
 k-point 11 :  -0.1875 0.3125 0.0625  plane waves:     208
 k-point 12 :  -0.4375 0.4375 0.0625  plane waves:     204
 k-point 13 :  -0.3125 0.4375 0.0625  plane waves:     212
 k-point 14 :  -0.4375-0.4375 0.0625  plane waves:     216
 k-point 15 :  -0.3125-0.4375 0.0625  plane waves:     216
 k-point 16 :   0.1875 0.1875 0.1875  plane waves:     210
 k-point 17 :   0.3125 0.1875 0.1875  plane waves:     210
 k-point 18 :  -0.1875 0.1875 0.1875  plane waves:     209
 k-point 19 :  -0.3125 0.3125 0.1875  plane waves:     213
 k-point 20 :  -0.4375 0.4375 0.1875  plane waves:     213
 k-point 21 :  -0.3125 0.4375 0.1875  plane waves:     215
 k-point 22 :  -0.4375-0.4375 0.1875  plane waves:     208
 k-point 23 :  -0.3125 0.3125 0.3125  plane waves:     213
 k-point 24 :  -0.4375 0.4375 0.3125  plane waves:     218
 k-point 25 :  -0.4375-0.4375 0.3125  plane waves:     218
 k-point 26 :  -0.4375 0.4375 0.4375  plane waves:     228

 maximum and minimum number of plane-waves per node :       228      203

 maximum number of plane-waves:       228
 maximum index in each direction: 
   IXMAX=    4   IYMAX=    4   IZMAX=    3
   IXMIN=   -4   IYMIN=   -4   IZMIN=   -4

 WARNING: aliasing errors must be expected set NGX to  18 to avoid them
 WARNING: aliasing errors must be expected set NGY to  18 to avoid them
 NGZ is ok and might be reduce to  16
 aliasing errors are usually negligible using standard VASP settings
 and one can safely disregard these warnings

 serial   3D FFT for wavefunctions
 parallel 3D FFT for charge:
    minimum data exchange during FFTs selected (reduces bandwidth)


 total amount of memory used by VASP on root node    32763. kBytes
========================================================================

   base      :      30000. kBytes
   nonl-proj :        857. kBytes
   fftplans  :        302. kBytes
   grid      :        954. kBytes
   one-center:         31. kBytes
   wavefun   :        619. kBytes
 
     INWAV:  cpu time    0.0000: real time    0.0000
 Broyden mixing: mesh for mixing (old mesh)
   NGX =  7   NGY =  7   NGZ =  7
  (NGX  = 32   NGY  = 32   NGZ  = 32)
  gives a total of    343 points

 initial charge density was supplied:
 charge density of overlapping atoms calculated
 number of electron       8.0000000 magnetization       4.0000000
 keeping initial charge density in first step


--------------------------------------------------------------------------------------------------------


 Maximum index for augmentation-charges         2971 (set IRDMAX)


--------------------------------------------------------------------------------------------------------


 First call to EWALD:  gamma=   0.784
 Maximum number of real-space cells 3x 3x 3
 Maximum number of reciprocal cells 3x 3x 3

 FEWALD executed in parallel
    FEWALD:  cpu time    0.0050: real time    0.0027


----------------------------------------- Iteration    1(   1)  ---------------------------------------


    POTLOK:  cpu time    0.0410: real time    0.0221
    SETDIJ:  cpu time    0.0310: real time    0.0169
     EDDAV:  cpu time    1.1748: real time    0.6938
 BZINTS: Fermi energy: 13.155755;  8.000000 electrons
         Band energy:  66.630999;  BLOECHL correction: -0.489299
       DOS:  cpu time    0.0610: real time    0.0321
    --------------------------------------------
      LOOP:  cpu time    1.3108: real time    0.7668

 eigenvalue-minimisations  :  1376
 total energy-change (2. order) : 0.1747783E+02  (-0.3658842E+03)
 number of electron       8.0000000 magnetization       4.0000000
 augmentation part        8.0000000 magnetization       4.0000000

 Free energy of the ion-electron system (eV)
  ---------------------------------------------------
  alpha Z        PSCENC =        59.71178263
  Ewald energy   TEWEN  =      -588.39789044
  -Hartree energ DENC   =      -112.96750494
  -exchange      EXHF   =         0.00000000
  -V(xc)+E(xc)   XCENC  =         5.94992066
  PAW double counting   =       552.89180568     -560.64780826
  entropy T*S    EENTRO =         0.00000000
  eigenvalues    EBANDS =        66.63099920
  atomic energy  EATOM  =       594.30652615
  Solvation  Ediel_sol  =         0.00000000
  ---------------------------------------------------
  free energy    TOTEN  =        17.47783068 eV

  energy without entropy =       17.47783068  energy(sigma->0) =       17.47783068


--------------------------------------------------------------------------------------------------------




----------------------------------------- Iteration    1(   2)  ---------------------------------------


     EDDAV:  cpu time    1.0408: real time    0.5203
 BZINTS: Fermi energy:  7.878356;  8.000000 electrons
         Band energy:  41.056430;  BLOECHL correction: -0.059069
       DOS:  cpu time    0.0630: real time    0.0294
    --------------------------------------------
      LOOP:  cpu time    1.1388: real time    0.5700

 eigenvalue-minimisations  :  1300
 total energy-change (2. order) :-0.2557457E+02  (-0.2314260E+02)
 number of electron       8.0000000 magnetization       4.0000000
 augmentation part        8.0000000 magnetization       4.0000000

 Free energy of the ion-electron system (eV)
  ---------------------------------------------------
  alpha Z        PSCENC =        59.71178263
  Ewald energy   TEWEN  =      -588.39789044
  -Hartree energ DENC   =      -112.96750494
  -exchange      EXHF   =         0.00000000
  -V(xc)+E(xc)   XCENC  =         5.94992066
  PAW double counting   =       552.89180568     -560.64780826
  entropy T*S    EENTRO =         0.00000000
  eigenvalues    EBANDS =        41.05642986
  atomic energy  EATOM  =       594.30652615
  Solvation  Ediel_sol  =         0.00000000
  ---------------------------------------------------
  free energy    TOTEN  =        -8.09673866 eV

  energy without entropy =       -8.09673866  energy(sigma->0) =       -8.09673866


--------------------------------------------------------------------------------------------------------




----------------------------------------- Iteration    1(   3)  ---------------------------------------


     EDDAV:  cpu time    1.1548: real time    0.5795
 BZINTS: Fermi energy:  7.792314;  8.000000 electrons
         Band energy:  40.458995;  BLOECHL correction: -0.063766
       DOS:  cpu time    0.0640: real time    0.0299
    --------------------------------------------
      LOOP:  cpu time    1.2248: real time    0.6131

 eigenvalue-minimisations  :  1448
 total energy-change (2. order) :-0.5974353E+00  (-0.5907804E+00)
 number of electron       8.0000000 magnetization       4.0000000
 augmentation part        8.0000000 magnetization       4.0000000

 Free energy of the ion-electron system (eV)
  ---------------------------------------------------
  alpha Z        PSCENC =        59.71178263
  Ewald energy   TEWEN  =      -588.39789044
  -Hartree energ DENC   =      -112.96750494
  -exchange      EXHF   =         0.00000000
  -V(xc)+E(xc)   XCENC  =         5.94992066
  PAW double counting   =       552.89180568     -560.64780826
  entropy T*S    EENTRO =         0.00000000
  eigenvalues    EBANDS =        40.45899457
  atomic energy  EATOM  =       594.30652615
  Solvation  Ediel_sol  =         0.00000000
  ---------------------------------------------------
  free energy    TOTEN  =        -8.69417395 eV

  energy without entropy =       -8.69417395  energy(sigma->0) =       -8.69417395


--------------------------------------------------------------------------------------------------------




----------------------------------------- Iteration    1(   4)  ---------------------------------------


     EDDAV:  cpu time    1.5128: real time    0.7601
 BZINTS: Fermi energy:  7.792048;  8.000000 electrons
         Band energy:  40.457028;  BLOECHL correction: -0.063780
       DOS:  cpu time    0.0540: real time    0.0248
    --------------------------------------------
      LOOP:  cpu time    1.5738: real time    0.7891

 eigenvalue-minimisations  :  1404
 total energy-change (2. order) :-0.1966393E-02  (-0.1958614E-02)
 number of electron       8.0000000 magnetization       4.0000000
 augmentation part        8.0000000 magnetization       4.0000000

 Free energy of the ion-electron system (eV)
  ---------------------------------------------------
  alpha Z        PSCENC =        59.71178263
  Ewald energy   TEWEN  =      -588.39789044
  -Hartree energ DENC   =      -112.96750494
  -exchange      EXHF   =         0.00000000
  -V(xc)+E(xc)   XCENC  =         5.94992066
  PAW double counting   =       552.89180568     -560.64780826
  entropy T*S    EENTRO =         0.00000000
  eigenvalues    EBANDS =        40.45702818
  atomic energy  EATOM  =       594.30652615
  Solvation  Ediel_sol  =         0.00000000
  ---------------------------------------------------
  free energy    TOTEN  =        -8.69614034 eV

  energy without entropy =       -8.69614034  energy(sigma->0) =       -8.69614034


--------------------------------------------------------------------------------------------------------




----------------------------------------- Iteration    1(   5)  ---------------------------------------


     EDDAV:  cpu time    1.1458: real time    0.5750
 BZINTS: Fermi energy:  7.792047;  8.000000 electrons
         Band energy:  40.457016;  BLOECHL correction: -0.063780
       DOS:  cpu time    0.0600: real time    0.0283
    CHARGE:  cpu time    0.0230: real time    0.0117
    MIXING:  cpu time    0.0020: real time    0.0006
    --------------------------------------------
      LOOP:  cpu time    1.2408: real time    0.6210

 eigenvalue-minimisations  :  1440
 total energy-change (2. order) :-0.1168625E-04  (-0.1163146E-04)
 number of electron       8.0000002 magnetization       1.8390553
 augmentation part        3.6558320 magnetization       1.1257474

 Broyden mixing:
  rms(total) = 0.12236E+01    rms(broyden)= 0.12233E+01
  rms(prec ) = 0.33145E+01
  weight for this iteration     100.00

 Free energy of the ion-electron system (eV)
  ---------------------------------------------------
  alpha Z        PSCENC =        59.71178263
  Ewald energy   TEWEN  =      -588.39789044
  -Hartree energ DENC   =      -112.96750494
  -exchange      EXHF   =         0.00000000
  -V(xc)+E(xc)   XCENC  =         5.94992066
  PAW double counting   =       552.89180568     -560.64780826
  entropy T*S    EENTRO =         0.00000000
  eigenvalues    EBANDS =        40.45701649
  atomic energy  EATOM  =       594.30652615
  Solvation  Ediel_sol  =         0.00000000
  ---------------------------------------------------
  free energy    TOTEN  =        -8.69615203 eV

  energy without entropy =       -8.69615203  energy(sigma->0) =       -8.69615203


--------------------------------------------------------------------------------------------------------




----------------------------------------- Iteration    1(   6)  ---------------------------------------


    POTLOK:  cpu time    0.0280: real time    0.0135
    SETDIJ:  cpu time    0.0160: real time    0.0096
     EDDAV:  cpu time    1.1138: real time    0.5582
 BZINTS: Fermi energy:  5.174031;  8.000000 electrons
         Band energy:  24.844607;  BLOECHL correction: -0.064409
       DOS:  cpu time    0.0580: real time    0.0264
    CHARGE:  cpu time    0.0300: real time    0.0159
    MIXING:  cpu time    0.0010: real time    0.0006
    --------------------------------------------
      LOOP:  cpu time    1.2508: real time    0.6269

 eigenvalue-minimisations  :  1412
 total energy-change (2. order) : 0.4014793E+00  (-0.9667738E+00)
 number of electron       8.0000002 magnetization       2.2509660
 augmentation part        4.2645579 magnetization       1.9060213

 Broyden mixing:
  rms(total) = 0.51048E+00    rms(broyden)= 0.51021E+00
  rms(prec ) = 0.67016E+00
  weight for this iteration     100.00

 eigenvalues of (default mixing * dielectric matrix)
  average eigenvalue GAMMA=   0.7506
  0.7506

 Free energy of the ion-electron system (eV)
  ---------------------------------------------------
  alpha Z        PSCENC =        59.71178263
  Ewald energy   TEWEN  =      -588.39789044
  -Hartree energ DENC   =       -96.87055490
  -exchange      EXHF   =         0.00000000
  -V(xc)+E(xc)   XCENC  =         3.97490190
  PAW double counting   =       607.39708542     -613.26113049
  entropy T*S    EENTRO =         0.00000000
  eigenvalues    EBANDS =        24.84460704
  atomic energy  EATOM  =       594.30652615
  Solvation  Ediel_sol  =         0.00000000
  ---------------------------------------------------
  free energy    TOTEN  =        -8.29467270 eV

  energy without entropy =       -8.29467270  energy(sigma->0) =       -8.29467270


--------------------------------------------------------------------------------------------------------




----------------------------------------- Iteration    1(   7)  ---------------------------------------


    POTLOK:  cpu time    0.0270: real time    0.0134
    SETDIJ:  cpu time    0.0150: real time    0.0088
     EDDAV:  cpu time    1.5488: real time    0.7763
 BZINTS: Fermi energy:  5.663935;  8.000000 electrons
         Band energy:  27.934339;  BLOECHL correction: -0.063294
       DOS:  cpu time    0.0630: real time    0.0293
    CHARGE:  cpu time    0.0250: real time    0.0127
    MIXING:  cpu time    0.0020: real time    0.0007
    --------------------------------------------
      LOOP:  cpu time    1.6857: real time    0.8442

 eigenvalue-minimisations  :  1460
 total energy-change (2. order) : 0.4553303E-01  (-0.4606121E-01)
 number of electron       8.0000002 magnetization       2.2172303
 augmentation part        4.1292805 magnetization       1.8524618

 Broyden mixing:
  rms(total) = 0.31800E+00    rms(broyden)= 0.31799E+00
  rms(prec ) = 0.41668E+00
  weight for this iteration     100.00

 eigenvalues of (default mixing * dielectric matrix)
  average eigenvalue GAMMA=   0.7644
  0.9736  0.5552

 Free energy of the ion-electron system (eV)
  ---------------------------------------------------
  alpha Z        PSCENC =        59.71178263
  Ewald energy   TEWEN  =      -588.39789044
  -Hartree energ DENC   =       -98.68203884
  -exchange      EXHF   =         0.00000000
  -V(xc)+E(xc)   XCENC  =         4.40205340
  PAW double counting   =       644.51291599     -652.03682747
  entropy T*S    EENTRO =         0.00000000
  eigenvalues    EBANDS =        27.93433892
  atomic energy  EATOM  =       594.30652615
  Solvation  Ediel_sol  =         0.00000000
  ---------------------------------------------------
  free energy    TOTEN  =        -8.24913967 eV

  energy without entropy =       -8.24913967  energy(sigma->0) =       -8.24913967


--------------------------------------------------------------------------------------------------------




----------------------------------------- Iteration    1(   8)  ---------------------------------------


    POTLOK:  cpu time    0.0280: real time    0.0136
    SETDIJ:  cpu time    0.0150: real time    0.0089
     EDDAV:  cpu time    1.1548: real time    0.5789
 BZINTS: Fermi energy:  5.617391;  8.000000 electrons
         Band energy:  27.682689;  BLOECHL correction: -0.063469
       DOS:  cpu time    0.0580: real time    0.0257
    CHARGE:  cpu time    0.0310: real time    0.0166
    MIXING:  cpu time    0.0010: real time    0.0007
    --------------------------------------------
      LOOP:  cpu time    1.2908: real time    0.6469

 eigenvalue-minimisations  :  1500
 total energy-change (2. order) : 0.8092841E-02  (-0.6242955E-03)
 number of electron       8.0000002 magnetization       2.1952658
 augmentation part        4.1390707 magnetization       1.8335123

 Broyden mixing:
  rms(total) = 0.12401E+00    rms(broyden)= 0.12400E+00
  rms(prec ) = 0.20852E+00
  weight for this iteration     100.00

 eigenvalues of (default mixing * dielectric matrix)
  average eigenvalue GAMMA=   1.1329
  2.0009  0.7823  0.6155

 Free energy of the ion-electron system (eV)
  ---------------------------------------------------
  alpha Z        PSCENC =        59.71178263
  Ewald energy   TEWEN  =      -588.39789044
  -Hartree energ DENC   =       -97.85773764
  -exchange      EXHF   =         0.00000000
  -V(xc)+E(xc)   XCENC  =         4.33821736
  PAW double counting   =       666.30933795     -674.33397212
  entropy T*S    EENTRO =         0.00000000
  eigenvalues    EBANDS =        27.68268929
  atomic energy  EATOM  =       594.30652615
  Solvation  Ediel_sol  =         0.00000000
  ---------------------------------------------------
  free energy    TOTEN  =        -8.24104682 eV

  energy without entropy =       -8.24104682  energy(sigma->0) =       -8.24104682


--------------------------------------------------------------------------------------------------------




----------------------------------------- Iteration    1(   9)  ---------------------------------------


    POTLOK:  cpu time    0.0280: real time    0.0134
    SETDIJ:  cpu time    0.0150: real time    0.0090
     EDDAV:  cpu time    1.2748: real time    0.6393
 BZINTS: Fermi energy:  5.548864;  8.000000 electrons
         Band energy:  27.283511;  BLOECHL correction: -0.064322
       DOS:  cpu time    0.0610: real time    0.0280
    CHARGE:  cpu time    0.0300: real time    0.0153
    MIXING:  cpu time    0.0010: real time    0.0008
    --------------------------------------------
      LOOP:  cpu time    1.4138: real time    0.7084

 eigenvalue-minimisations  :  1680
 total energy-change (2. order) : 0.5939626E-02  (-0.8465560E-03)
 number of electron       8.0000002 magnetization       2.1996851
 augmentation part        4.1561702 magnetization       1.8404821

 Broyden mixing:
  rms(total) = 0.20110E-01    rms(broyden)= 0.20104E-01
  rms(prec ) = 0.26380E-01
  weight for this iteration     100.00

 eigenvalues of (default mixing * dielectric matrix)
  average eigenvalue GAMMA=   1.2041
  2.4042  1.0100  0.7706  0.6315

 Free energy of the ion-electron system (eV)
  ---------------------------------------------------
  alpha Z        PSCENC =        59.71178263
  Ewald energy   TEWEN  =      -588.39789044
  -Hartree energ DENC   =       -96.57403913
  -exchange      EXHF   =         0.00000000
  -V(xc)+E(xc)   XCENC  =         4.29481012
  PAW double counting   =       703.18986201     -712.04966941
  entropy T*S    EENTRO =         0.00000000
  eigenvalues    EBANDS =        27.28351087
  atomic energy  EATOM  =       594.30652615
  Solvation  Ediel_sol  =         0.00000000
  ---------------------------------------------------
  free energy    TOTEN  =        -8.23510720 eV

  energy without entropy =       -8.23510720  energy(sigma->0) =       -8.23510720


--------------------------------------------------------------------------------------------------------




----------------------------------------- Iteration    1(  10)  ---------------------------------------


    POTLOK:  cpu time    0.0280: real time    0.0136
    SETDIJ:  cpu time    0.0150: real time    0.0090
     EDDAV:  cpu time    1.5128: real time    0.7583
 BZINTS: Fermi energy:  5.565554;  8.000000 electrons
         Band energy:  27.385020;  BLOECHL correction: -0.064401
       DOS:  cpu time    0.0630: real time    0.0294
    CHARGE:  cpu time    0.0250: real time    0.0128
    MIXING:  cpu time    0.0020: real time    0.0008
    --------------------------------------------
      LOOP:  cpu time    1.6497: real time    0.8264

 eigenvalue-minimisations  :  1388
 total energy-change (2. order) : 0.2846709E-04  (-0.6980624E-04)
 number of electron       8.0000002 magnetization       2.2016474
 augmentation part        4.1517395 magnetization       1.8408284

 Broyden mixing:
  rms(total) = 0.51620E-02    rms(broyden)= 0.51603E-02
  rms(prec ) = 0.68314E-02
  weight for this iteration     100.00

 eigenvalues of (default mixing * dielectric matrix)
  average eigenvalue GAMMA=   1.1460
  2.4449  1.1051  0.6697  0.6697  0.8406

 Free energy of the ion-electron system (eV)
  ---------------------------------------------------
  alpha Z        PSCENC =        59.71178263
  Ewald energy   TEWEN  =      -588.39789044
  -Hartree energ DENC   =       -96.48724412
  -exchange      EXHF   =         0.00000000
  -V(xc)+E(xc)   XCENC  =         4.29573089
  PAW double counting   =       711.44857082     -720.49757439
  entropy T*S    EENTRO =         0.00000000
  eigenvalues    EBANDS =        27.38501974
  atomic energy  EATOM  =       594.30652615
  Solvation  Ediel_sol  =         0.00000000
  ---------------------------------------------------
  free energy    TOTEN  =        -8.23507873 eV

  energy without entropy =       -8.23507873  energy(sigma->0) =       -8.23507873


--------------------------------------------------------------------------------------------------------




----------------------------------------- Iteration    1(  11)  ---------------------------------------


    POTLOK:  cpu time    0.0270: real time    0.0126
    SETDIJ:  cpu time    0.0150: real time    0.0092
     EDDAV:  cpu time    1.1098: real time    0.5562
 BZINTS: Fermi energy:  5.563068;  8.000000 electrons
         Band energy:  27.366399;  BLOECHL correction: -0.064425
       DOS:  cpu time    0.0590: real time    0.0270
    CHARGE:  cpu time    0.0300: real time    0.0158
    MIXING:  cpu time    0.0020: real time    0.0008
    --------------------------------------------
      LOOP:  cpu time    1.2478: real time    0.6250

 eigenvalue-minimisations  :  1396
 total energy-change (2. order) :-0.2628482E-04  (-0.3801280E-05)
 number of electron       8.0000002 magnetization       2.1977514
 augmentation part        4.1524839 magnetization       1.8367226

 Broyden mixing:
  rms(total) = 0.39096E-02    rms(broyden)= 0.39091E-02
  rms(prec ) = 0.42260E-02
  weight for this iteration     100.00

 eigenvalues of (default mixing * dielectric matrix)
  average eigenvalue GAMMA=   1.2970
  2.3247  2.3247  1.0108  0.6566  0.7514  0.7137

 Free energy of the ion-electron system (eV)
  ---------------------------------------------------
  alpha Z        PSCENC =        59.71178263
  Ewald energy   TEWEN  =      -588.39789044
  -Hartree energ DENC   =       -96.47757577
  -exchange      EXHF   =         0.00000000
  -V(xc)+E(xc)   XCENC  =         4.29632724
  PAW double counting   =       711.94851538     -720.98918931
  entropy T*S    EENTRO =         0.00000000
  eigenvalues    EBANDS =        27.36639911
  atomic energy  EATOM  =       594.30652615
  Solvation  Ediel_sol  =         0.00000000
  ---------------------------------------------------
  free energy    TOTEN  =        -8.23510502 eV

  energy without entropy =       -8.23510502  energy(sigma->0) =       -8.23510502


--------------------------------------------------------------------------------------------------------




----------------------------------------- Iteration    1(  12)  ---------------------------------------


    POTLOK:  cpu time    0.0280: real time    0.0136
    SETDIJ:  cpu time    0.0150: real time    0.0094
     EDDAV:  cpu time    1.1218: real time    0.5620
 BZINTS: Fermi energy:  5.562188;  8.000000 electrons
         Band energy:  27.359675;  BLOECHL correction: -0.064439
       DOS:  cpu time    0.0560: real time    0.0253
    CHARGE:  cpu time    0.0270: real time    0.0143
    MIXING:  cpu time    0.0010: real time    0.0009
    --------------------------------------------
      LOOP:  cpu time    1.2528: real time    0.6280

 eigenvalue-minimisations  :  1400
 total energy-change (2. order) :-0.6629322E-05  (-0.3025324E-06)
 number of electron       8.0000002 magnetization       2.1984381
 augmentation part        4.1526466 magnetization       1.8375400

 Broyden mixing:
  rms(total) = 0.21793E-02    rms(broyden)= 0.21790E-02
  rms(prec ) = 0.23161E-02
  weight for this iteration     100.00

 eigenvalues of (default mixing * dielectric matrix)
  average eigenvalue GAMMA=   1.2643
  2.5551  2.5551  1.0826  0.8363  0.6676  0.6676  0.4860

 Free energy of the ion-electron system (eV)
  ---------------------------------------------------
  alpha Z        PSCENC =        59.71178263
  Ewald energy   TEWEN  =      -588.39789044
  -Hartree energ DENC   =       -96.49854350
  -exchange      EXHF   =         0.00000000
  -V(xc)+E(xc)   XCENC  =         4.29352064
  PAW double counting   =       712.00035895     -721.01054116
  entropy T*S    EENTRO =         0.00000000
  eigenvalues    EBANDS =        27.35967509
  atomic energy  EATOM  =       594.30652615
  Solvation  Ediel_sol  =         0.00000000
  ---------------------------------------------------
  free energy    TOTEN  =        -8.23511165 eV

  energy without entropy =       -8.23511165  energy(sigma->0) =       -8.23511165


--------------------------------------------------------------------------------------------------------




----------------------------------------- Iteration    1(  13)  ---------------------------------------


    POTLOK:  cpu time    0.0270: real time    0.0133
    SETDIJ:  cpu time    0.0160: real time    0.0096
     EDDAV:  cpu time    1.0858: real time    0.5457
 BZINTS: Fermi energy:  5.561707;  8.000000 electrons
         Band energy:  27.356932;  BLOECHL correction: -0.064442
       DOS:  cpu time    0.0550: real time    0.0246
    CHARGE:  cpu time    0.0280: real time    0.0150
    MIXING:  cpu time    0.0020: real time    0.0009
    --------------------------------------------
      LOOP:  cpu time    1.2188: real time    0.6118

 eigenvalue-minimisations  :   688
 total energy-change (2. order) : 0.1781178E-05  (-0.4017149E-07)
 number of electron       8.0000002 magnetization       2.1997560
 augmentation part        4.1527669 magnetization       1.8389101

 Broyden mixing:
  rms(total) = 0.14115E-02    rms(broyden)= 0.14115E-02
  rms(prec ) = 0.14366E-02
  weight for this iteration     100.00

 eigenvalues of (default mixing * dielectric matrix)
  average eigenvalue GAMMA=   1.2509
  2.6638  2.4736  1.1715  1.0152  0.7240  0.7240  0.6343  0.6010

 Free energy of the ion-electron system (eV)
  ---------------------------------------------------
  alpha Z        PSCENC =        59.71178263
  Ewald energy   TEWEN  =      -588.39789044
  -Hartree energ DENC   =       -96.49764376
  -exchange      EXHF   =         0.00000000
  -V(xc)+E(xc)   XCENC  =         4.29468801
  PAW double counting   =       712.00402145     -721.01352581
  entropy T*S    EENTRO =         0.00000000
  eigenvalues    EBANDS =        27.35693192
  atomic energy  EATOM  =       594.30652615
  Solvation  Ediel_sol  =         0.00000000
  ---------------------------------------------------
  free energy    TOTEN  =        -8.23510986 eV

  energy without entropy =       -8.23510986  energy(sigma->0) =       -8.23510986


--------------------------------------------------------------------------------------------------------




----------------------------------------- Iteration    1(  14)  ---------------------------------------


    POTLOK:  cpu time    0.0090: real time    0.0089
    SETDIJ:  cpu time    0.0050: real time    0.0048
     EDDAV:  cpu time    0.8179: real time    0.4561
 BZINTS: Fermi energy:  5.561731;  8.000000 electrons
         Band energy:  27.357569;  BLOECHL correction: -0.064443
       DOS:  cpu time    0.0720: real time    0.0427
    --------------------------------------------
      LOOP:  cpu time    1.3308: real time    0.8448

 eigenvalue-minimisations  :   676
 total energy-change (2. order) :-0.6440064E-07  (-0.2699602E-07)
 number of electron       8.0000002 magnetization       2.1997560
 augmentation part        4.1527669 magnetization       1.8389101

 Free energy of the ion-electron system (eV)
  ---------------------------------------------------
  alpha Z        PSCENC =        59.71178263
  Ewald energy   TEWEN  =      -588.39789044
  -Hartree energ DENC   =       -96.49306666
  -exchange      EXHF   =         0.00000000
  -V(xc)+E(xc)   XCENC  =         4.29594145
  PAW double counting   =       712.11794511     -721.13391718
  entropy T*S    EENTRO =         0.00000000
  eigenvalues    EBANDS =        27.35756902
  atomic energy  EATOM  =       594.30652615
  Solvation  Ediel_sol  =         0.00000000
  ---------------------------------------------------
  free energy    TOTEN  =        -8.23510993 eV

  energy without entropy =       -8.23510993  energy(sigma->0) =       -8.23510993


--------------------------------------------------------------------------------------------------------




 average (electrostatic) potential at core
  the test charge radii are     1.0103
  (the norm of the test charge is              1.0000)
       1 -43.4924
 
 
 
 E-fermi :   5.5617     XC(G=0): -13.0113     alpha+bet :-13.3918


 spin component 1

 k-point     1 :       0.0625    0.0625    0.0625
  band No.  band energies     occupation 
      1      -1.7335      1.00000
      2       3.1403      1.00000
      3       3.1403      1.00000
      4       3.9237      1.00000
      5       4.4989      1.00000
      6       4.4989      1.00339
      7      26.8372      0.00000
      8      26.8372      0.00000
      9      30.6245      0.00000
     10      31.3752      0.00000
     11      36.2689      0.00000
     12      36.2689      0.00000

 k-point     2 :       0.1875    0.0625    0.0625
  band No.  band energies     occupation 
      1      -0.1558      1.00000
      2       2.7418      1.00000
      3       2.9491      1.00000
      4       4.4388      1.00000
      5       4.6187      1.00091
      6       4.9237      0.88295
      7      21.4145      0.00000
      8      24.4994      0.00000
      9      26.7856      0.00000
     10      31.6805      0.00000
     11      35.6951      0.00000
     12      36.9148      0.00000

 k-point     3 :       0.3125    0.0625    0.0625
  band No.  band energies     occupation 
      1       0.9733      1.00000
      2       2.3999      1.00000
      3       3.7187      1.00000
      4       4.5777      1.00000
      5       4.7134      1.03317
      6       6.3302      0.01097
      7      15.9662      0.00000
      8      22.8075      0.00000
      9      24.4682      0.00000
     10      31.1389      0.00000
     11      35.0037      0.00000
     12      40.2204      0.00000

 k-point     4 :       0.4375    0.0625    0.0625
  band No.  band energies     occupation 
      1       1.0281      1.00000
      2       2.2685      1.00000
      3       4.6394      1.00000
      4       4.6997      1.00000
      5       4.7518      1.07998
      6       7.7192     -0.00485
      7      12.8739      0.00000
      8      22.1880      0.00000
      9      23.6045      0.00000
     10      30.9034      0.00000
     11      34.8965      0.00000
     12      40.1708      0.00000

 k-point     5 :      -0.0625    0.0625    0.0625
  band No.  band energies     occupation 
      1      -2.3434      1.00000
      2       3.3383      1.00000
      3       3.3383      1.00000
      4       3.4241      1.00000
      5       4.4255      1.00000
      6       4.6191      1.00000
      7      28.7790      0.00000
      8      30.1050      0.00000
      9      30.1050      0.00000
     10      33.1554      0.00000
     11      35.2572      0.00000
     12      35.2572      0.00000

 k-point     6 :       0.1875    0.1875    0.0625
  band No.  band energies     occupation 
      1       1.3055      1.00000
      2       2.4683      1.00000
      3       2.6658      1.00000
      4       4.5177      1.00000
      5       4.7455      1.00075
      6       6.5320     -0.00815
      7      18.9181      0.00000
      8      19.7122      0.00000
      9      23.5922      0.00000
     10      33.5990      0.00000
     11      37.2003      0.00000
     12      39.5928      0.00000

 k-point     7 :       0.3125    0.1875    0.0625
  band No.  band energies     occupation 
      1       1.6430      1.00000
      2       2.3059      1.00000
      3       3.2957      1.00000
      4       4.6549      1.00000
      5       4.8398      1.00976
      6       8.9790     -0.00357
      7      14.2942      0.00000
      8      18.1479      0.00000
      9      22.3219      0.00000
     10      33.9445      0.00000
     11      38.2521      0.00000
     12      40.1952      0.00000

 k-point     8 :      -0.1875    0.1875    0.0625
  band No.  band energies     occupation 
      1      -1.1641      1.00000
      2       3.0785      1.00000
      3       3.2688      1.00000
      4       4.0270      1.00000
      5       4.1915      1.00000
      6       4.7162      1.01081
      7      24.2887      0.00000
      8      27.6725      0.00000
      9      28.5119      0.00000
     10      32.5404      0.00000
     11      32.6905      0.00000
     12      34.2573      0.00000

 k-point     9 :       0.3125    0.3125    0.0625
  band No.  band energies     occupation 
      1       1.9557      1.00000
      2       2.6611      1.00000
      3       2.6611      1.00000
      4       4.7898      1.00000
      5       4.7898      1.00000
      6      12.4820      0.00000
      7      12.4820      0.00000
      8      14.9450      0.00000
      9      21.8535      0.00000
     10      36.3790      0.00000
     11      36.3790      0.00000
     12      43.4254      0.00000

 k-point    10 :      -0.3125    0.3125    0.0625
  band No.  band energies     occupation 
      1       0.4576      1.00000
      2       2.6915      1.00000
      3       3.3327      1.00000
      4       4.3925      1.00000
      5       4.8978      1.01740
      6       5.0166      0.70922
      7      18.5176      0.00000
      8      25.2797      0.00000
      9      26.3622      0.00000
     10      30.8490      0.00000
     11      32.7225      0.00000
     12      35.6301      0.00000

 k-point    11 :      -0.1875    0.3125    0.0625
  band No.  band energies     occupation 
      1       0.2716      1.00000
      2       2.8701      1.00000
      3       3.0695      1.00000
      4       4.0702      1.00000
      5       4.7461      1.00179
      6       5.0946      0.76010
      7      21.4967      0.00000
      8      22.4572      0.00000
      9      28.9743      0.00000
     10      29.1865      0.00000
     11      32.9340      0.00000
     12      37.5526      0.00000

 k-point    12 :      -0.4375    0.4375    0.0625
  band No.  band energies     occupation 
      1       0.9081      1.00000
      2       2.4288      1.00000
      3       4.0928      1.00000
      4       4.5552      1.00000
      5       5.8119      0.48885
      6       6.2636      0.00080
      7      13.7784      0.00000
      8      23.9161      0.00000
      9      24.7477      0.00000
     10      30.1396      0.00000
     11      32.9736      0.00000
     12      37.3324      0.00000

 k-point    13 :      -0.3125    0.4375    0.0625
  band No.  band energies     occupation 
      1       1.3118      1.00000
      2       2.5716      1.00000
      3       3.1376      1.00000
      4       4.3644      1.00000
      5       5.1291      1.02463
      6       6.8161     -0.03592
      7      16.3434      0.00000
      8      20.2417      0.00000
      9      26.7886      0.00000
     10      29.9568      0.00000
     11      33.5698      0.00000
     12      38.0711      0.00000

 k-point    14 :      -0.4375   -0.4375    0.0625
  band No.  band energies     occupation 
      1       1.3459      1.00000
      2       2.5618      1.00000
      3       3.3085      1.00000
      4       4.4662      1.00000
      5       5.4741      0.88700
      6       8.8216     -0.00182
      7      12.9783      0.00000
      8      19.5503      0.00000
      9      25.9551      0.00000
     10      30.2879      0.00000
     11      34.5588      0.00000
     12      37.3752      0.00000

 k-point    15 :      -0.3125   -0.4375    0.0625
  band No.  band energies     occupation 
      1       2.0239      1.00000
      2       2.2763      1.00000
      3       2.8062      1.00000
      4       4.6578      1.00000
      5       5.1037      1.03781
      6      10.0409     -0.00059
      7      14.4242      0.00000
      8      15.7529      0.00000
      9      27.1741      0.00000
     10      30.3755      0.00000
     11      32.5535      0.00000
     12      39.5825      0.00000

 k-point    16 :       0.1875    0.1875    0.1875
  band No.  band energies     occupation 
      1       2.2906      1.00000
      2       2.2906      1.00000
      3       2.4603      1.00000
      4       4.7289      1.00000
      5       4.7289      1.00000
      6       8.9575     -0.00452
      7      17.2780      0.00000
      8      17.2780      0.00000
      9      18.5736      0.00000
     10      38.2838      0.00000
     11      40.9154      0.00000
     12      40.9154      0.00000

 k-point    17 :       0.3125    0.1875    0.1875
  band No.  band energies     occupation 
      1       2.1780      1.00000
      2       2.2534      1.00000
      3       2.9013      1.00000
      4       4.7620      1.00000
      5       4.7760      1.00000
      6      11.7770      0.00000
      7      13.5932      0.00000
      8      16.7147      0.00000
      9      17.6586      0.00000
     10      39.3073      0.00000
     11      42.6778      0.00000
     12      43.0662      0.00000

 k-point    18 :      -0.1875    0.1875    0.1875
  band No.  band energies     occupation 
      1      -0.1311      1.00000
      2       3.4284      1.00000
      3       3.4896      1.00000
      4       3.4896      1.00000
      5       4.0408      1.00000
      6       5.0727      0.90566
      7      24.4371      0.00000
      8      25.3736      0.00000
      9      25.3736      0.00000
     10      27.3082      0.00000
     11      36.7184      0.00000
     12      36.7184      0.00000

 k-point    19 :      -0.3125    0.3125    0.1875
  band No.  band energies     occupation 
      1       1.1607      1.00000
      2       2.6805      1.00000
      3       3.3542      1.00000
      4       4.0020      1.00000
      5       4.9028      1.03286
      6       5.9268      0.11095
      7      19.3691      0.00000
      8      22.7736      0.00000
      9      23.9746      0.00000
     10      27.9039      0.00000
     11      35.7756      0.00000
     12      37.5020      0.00000

 k-point    20 :      -0.4375    0.4375    0.1875
  band No.  band energies     occupation 
      1       1.4428      1.00000
      2       2.6156      1.00000
      3       3.1607      1.00000
      4       4.2131      1.00000
      5       5.7323      0.35589
      6       8.4030     -0.01133
      7      14.2982      0.00000
      8      21.1665      0.00000
      9      23.1354      0.00000
     10      30.4259      0.00000
     11      34.8485      0.00000
     12      35.5011      0.00000

 k-point    21 :      -0.3125    0.4375    0.1875
  band No.  band energies     occupation 
      1       1.7563      1.00000
      2       2.0668      1.00000
      3       3.4334      1.00000
      4       4.3903      1.00000
      5       5.3178      1.06496
      6       8.2790     -0.01511
      7      17.2355      0.00000
      8      17.8436      0.00000
      9      25.3985      0.00000
     10      26.8977      0.00000
     11      34.4945      0.00000
     12      37.3895      0.00000

 k-point    22 :      -0.4375   -0.4375    0.1875
  band No.  band energies     occupation 
      1       1.7094      1.00000
      2       2.0776      1.00000
      3       3.2435      1.00000
      4       4.6942      1.00000
      5       5.5443      0.76095
      6      11.2705      0.00000
      7      13.4530      0.00000
      8      16.8625      0.00000
      9      25.4060      0.00000
     10      28.5628      0.00000
     11      31.9761      0.00000
     12      36.3955      0.00000

 k-point    23 :      -0.3125    0.3125    0.3125
  band No.  band energies     occupation 
      1       1.5454      1.00000
      2       2.0221      1.00000
      3       4.2473      1.00000
      4       4.2473      1.00000
      5       4.9376      1.16790
      6       7.6514     -0.02198
      7      19.8510      0.00000
      8      19.8510      0.00000
      9      22.1151      0.00000
     10      24.1515      0.00000
     11      35.8342      0.00000
     12      40.6539      0.00000

 k-point    24 :      -0.4375    0.4375    0.3125
  band No.  band energies     occupation 
      1       1.4468      1.00000
      2       1.5764      1.00000
      3       4.3825      1.00000
      4       4.6591      1.00000
      5       5.6223      0.29394
      6      10.7563      0.00000
      7      15.4863      0.00000
      8      18.0476      0.00000
      9      22.2831      0.00000
     10      25.1591      0.00000
     11      31.1823      0.00000
     12      40.1401      0.00000

 k-point    25 :      -0.4375   -0.4375    0.3125
  band No.  band energies     occupation 
      1       1.3097      1.00000
      2       1.3097      1.00000
      3       4.4872      1.00000
      4       5.4707      1.00000
      5       5.4707      1.07065
      6      14.1391      0.00000
      7      14.1391      0.00000
      8      15.2574      0.00000
      9      23.7556      0.00000
     10      23.7556      0.00000
     11      28.6473      0.00000
     12      40.6830      0.00000

 k-point    26 :      -0.4375    0.4375    0.4375
  band No.  band energies     occupation 
      1       1.0522      1.00000
      2       1.0531      1.00000
      3       5.4306      1.00000
      4       5.4306      1.00000
      5       5.5878      0.23721
      6      13.5377      0.00000
      7      16.0484      0.00000
      8      16.0484      0.00000
      9      21.2329      0.00000
     10      22.3992      0.00000
     11      27.1362      0.00000
     12      43.8878      0.00000

 spin component 2

 k-point     1 :       0.0625    0.0625    0.0625
  band No.  band energies     occupation 
      1      -1.6173      1.00000
      2       5.0738      1.00000
      3       5.0738      1.00000
      4       5.9564     -0.02379
      5       7.1923      0.00000
      6       7.1923      0.00000
      7      26.9871      0.00000
      8      26.9871      0.00000
      9      31.0430      0.00000
     10      31.4570      0.00000
     11      36.5523      0.00000
     12      36.5523      0.00000

 k-point     2 :       0.1875    0.0625    0.0625
  band No.  band energies     occupation 
      1       0.0524      1.00000
      2       4.5869      1.00000
      3       4.7519      1.00000
      4       6.9985     -0.00095
      5       7.0481      0.00000
      6       7.3477      0.00000
      7      21.9800      0.00000
      8      24.7736      0.00000
      9      27.4984      0.00000
     10      31.5807      0.00000
     11      36.2418      0.00000
     12      37.1297      0.00000

 k-point     3 :       0.3125    0.0625    0.0625
  band No.  band energies     occupation 
      1       1.8481      1.00000
      2       4.1675      1.00000
      3       4.8697      1.00784
      4       7.1416      0.00000
      5       7.4859      0.00000
      6       8.2793      0.00000
      7      16.9007      0.00000
      8      23.0695      0.00000
      9      25.0883      0.00000
     10      31.2928      0.00000
     11      35.5353      0.00000
     12      40.3742      0.00000

 k-point     4 :       0.4375    0.0625    0.0625
  band No.  band energies     occupation 
      1       2.3244      1.00000
      2       4.0070      1.00000
      3       5.6349      0.89025
      4       7.2130      0.00000
      5       7.5454      0.00000
      6       9.1359      0.00000
      7      14.2116      0.00000
      8      22.4283      0.00000
      9      24.1756      0.00000
     10      31.1338      0.00000
     11      35.4526      0.00000
     12      40.1429      0.00000

 k-point     5 :      -0.0625    0.0625    0.0625
  band No.  band energies     occupation 
      1      -2.2350      1.00000
      2       5.3100      1.00000
      3       5.3100      1.00000
      4       5.4179      0.37834
      5       7.1080      0.00000
      6       7.3580      0.00000
      7      28.6314      0.00000
      8      29.9528      0.00000
      9      29.9528      0.00000
     10      33.5024      0.00000
     11      36.0031      0.00000
     12      36.0032      0.00000

 k-point     6 :       0.1875    0.1875    0.0625
  band No.  band energies     occupation 
      1       1.8319      1.00000
      2       4.1932      1.00000
      3       4.3005      1.00008
      4       7.1245      0.00000
      5       7.4797      0.00000
      6       8.4707      0.00000
      7      19.5883      0.00000
      8      20.3290      0.00000
      9      24.1510      0.00000
     10      33.4931      0.00000
     11      37.4752      0.00000
     12      39.8577      0.00000

 k-point     7 :       0.3125    0.1875    0.0625
  band No.  band energies     occupation 
      1       2.9364      1.00000
      2       3.9598      1.00000
      3       4.5433      1.00268
      4       7.2644      0.00000
      5       7.5506      0.00000
      6      10.3942      0.00000
      7      15.3089      0.00000
      8      18.7813      0.00000
      9      22.8389      0.00000
     10      33.9790      0.00000
     11      38.3255      0.00000
     12      40.5764      0.00000

 k-point     8 :      -0.1875    0.1875    0.0625
  band No.  band energies     occupation 
      1      -1.0287      1.00000
      2       4.9921      1.00000
      3       5.1868      1.00000
      4       6.0817     -0.01219
      5       6.7568      0.00000
      6       7.4644      0.00000
      7      24.6700      0.00000
      8      27.7518      0.00000
      9      28.8426      0.00000
     10      32.9169      0.00000
     11      33.2168      0.00000
     12      34.6231      0.00000

 k-point     9 :       0.3125    0.3125    0.0625
  band No.  band energies     occupation 
      1       3.4941      1.00000
      2       4.0895      1.00000
      3       4.0895      1.00010
      4       7.4389      0.00000
      5       7.4389      0.00000
      6      13.5041      0.00000
      7      13.5041      0.00000
      8      15.8350      0.00000
      9      22.3906      0.00000
     10      36.3688      0.00000
     11      36.3688      0.00000
     12      44.1086      0.00000

 k-point    10 :      -0.3125    0.3125    0.0625
  band No.  band energies     occupation 
      1       0.9087      1.00000
      2       4.5260      1.00000
      3       4.9197      1.00192
      4       6.8219      0.00000
      5       7.1924      0.00000
      6       7.5831      0.00000
      7      19.2888      0.00000
      8      25.3653      0.00000
      9      26.9418      0.00000
     10      31.2795      0.00000
     11      33.2027      0.00000
     12      35.8694      0.00000

 k-point    11 :      -0.1875    0.3125    0.0625
  band No.  band energies     occupation 
      1       0.5471      1.00000
      2       4.7738      1.00000
      3       4.8838      1.00179
      4       6.4825     -0.00053
      5       6.9308      0.00000
      6       7.6939      0.00000
      7      22.0661      0.00000
      8      23.0017      0.00000
      9      29.1597      0.00000
     10      29.6516      0.00000
     11      33.2960      0.00000
     12      37.8449      0.00000

 k-point    12 :      -0.4375    0.4375    0.0625
  band No.  band energies     occupation 
      1       2.1105      1.00000
      2       4.2131      1.00000
      3       5.5001      0.98452
      4       7.0333      0.00000
      5       7.9558      0.00000
      6       8.1069      0.00000
      7      14.9823      0.00000
      8      23.9712      0.00000
      9      25.3007      0.00000
     10      30.6079      0.00000
     11      33.5299      0.00000
     12      37.4064      0.00000

 k-point    13 :      -0.3125    0.4375    0.0625
  band No.  band energies     occupation 
      1       2.2556      1.00000
      2       4.3340      1.00000
      3       4.7301      1.00571
      4       6.7349      0.00000
      5       7.5877      0.00000
      6       8.6870      0.00000
      7      17.2336      0.00000
      8      20.8196      0.00000
      9      27.1014      0.00000
     10      30.2998      0.00000
     11      33.8534      0.00000
     12      38.4638      0.00000

 k-point    14 :      -0.4375   -0.4375    0.0625
  band No.  band energies     occupation 
      1       2.7385      1.00000
      2       4.3269      1.00000
      3       4.8194      1.00967
      4       6.8901      0.00000
      5       7.8163      0.00000
      6      10.0691      0.00000
      7      14.2471      0.00000
      8      20.1160      0.00000
      9      26.2344      0.00000
     10      30.7185      0.00000
     11      34.6180      0.00000
     12      37.8660      0.00000

 k-point    15 :      -0.3125   -0.4375    0.0625
  band No.  band energies     occupation 
      1       3.4401      1.00000
      2       3.9432      1.00000
      3       4.4393      1.00582
      4       7.0252      0.00000
      5       7.5053      0.00000
      6      11.3370      0.00000
      7      15.3868      0.00000
      8      16.5579      0.00000
      9      27.6195      0.00000
     10      30.5316      0.00000
     11      32.7249      0.00000
     12      40.4100      0.00000

 k-point    16 :       0.1875    0.1875    0.1875
  band No.  band energies     occupation 
      1       3.3381      1.00000
      2       3.8857      1.00000
      3       3.8857      1.00011
      4       7.4773      0.00000
      5       7.4773      0.00000
      6      10.4778      0.00000
      7      17.9854      0.00000
      8      17.9854      0.00000
      9      19.2368      0.00000
     10      37.9633      0.00000
     11      41.0390      0.00000
     12      41.0390      0.00000

 k-point    17 :       0.3125    0.1875    0.1875
  band No.  band energies     occupation 
      1       3.5794      1.00000
      2       3.7991      1.00000
      3       4.2021      1.00017
      4       7.5103      0.00000
      5       7.5777      0.00000
      6      12.8065      0.00000
      7      14.6116      0.00000
      8      17.4301      0.00000
      9      18.3121      0.00000
     10      39.1590      0.00000
     11      42.6747      0.00000
     12      43.3632      0.00000

 k-point    18 :      -0.1875    0.1875    0.1875
  band No.  band energies     occupation 
      1       0.0722      1.00000
      2       5.4072      1.00000
      3       5.4072      0.98266
      4       5.8187      0.00092
      5       6.1078      0.00000
      6       7.7732      0.00000
      7      24.7216      0.00000
      8      25.9268      0.00000
      9      25.9268      0.00000
     10      27.6715      0.00000
     11      36.9691      0.00000
     12      36.9691      0.00000

 k-point    19 :      -0.3125    0.3125    0.1875
  band No.  band energies     occupation 
      1       1.7703      1.00000
      2       4.6888      1.00000
      3       5.2406      0.96327
      4       6.0915      0.00000
      5       7.0622      0.00000
      6       8.1932      0.00000
      7      20.0892      0.00000
      8      23.3697      0.00000
      9      24.3568      0.00000
     10      28.2787      0.00000
     11      36.1822      0.00000
     12      37.8514      0.00000

 k-point    20 :      -0.4375    0.4375    0.1875
  band No.  band energies     occupation 
      1       2.8433      1.00000
      2       4.2855      1.00000
      3       5.0121      0.97979
      4       6.4287      0.00000
      5       8.0154      0.00000
      6       9.7507      0.00000
      7      15.3473      0.00000
      8      21.7129      0.00000
      9      23.5417      0.00000
     10      30.6656      0.00000
     11      35.2775      0.00000
     12      36.0640      0.00000

 k-point    21 :      -0.3125    0.4375    0.1875
  band No.  band energies     occupation 
      1       2.9762      1.00000
      2       3.9740      1.00000
      3       5.3120      0.84765
      4       6.4857      0.00000
      5       7.5685      0.00000
      6       9.7743      0.00000
      7      18.0465      0.00000
      8      18.5080      0.00000
      9      25.7987      0.00000
     10      27.2829      0.00000
     11      34.9558      0.00000
     12      38.0560      0.00000

 k-point    22 :      -0.4375   -0.4375    0.1875
  band No.  band energies     occupation 
      1       3.4076      1.00000
      2       3.7669      1.00000
      3       5.0496      0.89845
      4       6.8469      0.00000
      5       7.8040      0.00000
      6      12.2764      0.00000
      7      14.4881      0.00000
      8      17.5480      0.00000
      9      25.7997      0.00000
     10      28.8043      0.00000
     11      32.6520      0.00000
     12      37.0258      0.00000

 k-point    23 :      -0.3125    0.3125    0.3125
  band No.  band energies     occupation 
      1       2.7109      1.00000
      2       4.0556      1.00000
      3       6.2045      0.01357
      4       6.2045      0.00000
      5       7.1185      0.00000
      6       9.2230      0.00000
      7      20.4157      0.00000
      8      20.4157      0.00000
      9      22.7999      0.00000
     10      24.6554      0.00000
     11      36.5290      0.00000
     12      41.0469      0.00000

 k-point    24 :      -0.4375    0.4375    0.3125
  band No.  band energies     occupation 
      1       3.1167      1.00000
      2       3.4041      1.00000
      3       6.3824     -0.02086
      4       6.6835      0.00000
      5       7.8898      0.00000
      6      11.7130      0.00000
      7      16.2072      0.00000
      8      18.5178      0.00000
      9      22.9767      0.00000
     10      25.6304      0.00000
     11      32.0273      0.00000
     12      40.4988      0.00000

 k-point    25 :      -0.4375   -0.4375    0.3125
  band No.  band energies     occupation 
      1       3.1002      1.00000
      2       3.1002      1.00000
      3       6.4653     -0.02811
      4       7.6852      0.00000
      5       7.6852      0.00000
      6      14.8041      0.00000
      7      14.8041      0.00000
      8      15.8276      0.00000
      9      24.3130      0.00000
     10      24.3130      0.00000
     11      29.6342      0.00000
     12      41.0352      0.00000

 k-point    26 :      -0.4375    0.4375    0.4375
  band No.  band energies     occupation 
      1       2.8202      1.00000
      2       2.8786      1.00000
      3       7.6283     -0.01068
      4       7.6283      0.00000
      5       7.8566      0.00000
      6      14.0464      0.00000
      7      16.3551      0.00000
      8      16.3551      0.00000
      9      22.1424      0.00000
     10      23.1369      0.00000
     11      28.1515      0.00000
     12      44.1050      0.00000


--------------------------------------------------------------------------------------------------------


 soft charge-density along one line, spin component           1
         0         1         2         3         4         5         6         7         8         9
 total charge-density along one line
 
 soft charge-density along one line, spin component           2
         0         1         2         3         4         5         6         7         8         9
 total charge-density along one line
 
 pseudopotential strength for first ion, spin component:           1
 -5.738  -0.000  -0.000  -0.000  -0.000  -6.264  -0.000  -0.000
 -0.000  -5.738   0.000  -0.000  -0.000  -0.000  -6.264   0.000
 -0.000   0.000  -5.900   0.000   0.000  -0.000   0.000  -6.422
 -0.000  -0.000   0.000  -5.738   0.000  -0.000  -0.000   0.000
 -0.000  -0.000   0.000   0.000  -5.900  -0.000  -0.000   0.000
 -6.264  -0.000  -0.000  -0.000  -0.000  -6.749  -0.000  -0.000
 -0.000  -6.264   0.000  -0.000  -0.000  -0.000  -6.749   0.000
 -0.000   0.000  -6.422   0.000   0.000  -0.000   0.000  -6.902
 -0.000  -0.000   0.000  -6.264   0.000  -0.000  -0.000   0.000
 -0.000  -0.000   0.000   0.000  -6.422  -0.000  -0.000   0.000
  0.000   0.000   0.000   0.000   0.000   0.000   0.000   0.000
  0.000   0.000   0.000   0.000   0.000   0.000   0.000   0.000
 -0.000  -0.000   0.000   0.000   0.000  -0.000  -0.000   0.000
  0.000  -0.000  -0.000  -0.000  -0.000   0.000  -0.000  -0.000
 -0.000   0.000   0.000  -0.000  -0.000  -0.000   0.000   0.000
 -0.000  -0.000   0.000   0.000   0.000  -0.000  -0.000   0.000
  0.000  -0.000  -0.000  -0.000  -0.000   0.000  -0.000  -0.000
 -0.000   0.000   0.000  -0.000  -0.000  -0.000   0.000   0.000
 pseudopotential strength for first ion, spin component:           2
 -4.229  -0.000   0.000  -0.000  -0.000  -4.803  -0.000   0.000
 -0.000  -4.229  -0.000  -0.000   0.000  -0.000  -4.803  -0.000
  0.000  -0.000  -4.019  -0.000   0.000   0.000  -0.000  -4.597
 -0.000  -0.000  -0.000  -4.229  -0.000  -0.000  -0.000  -0.000
 -0.000   0.000   0.000  -0.000  -4.019  -0.000   0.000   0.000
 -4.803  -0.000   0.000  -0.000  -0.000  -5.334  -0.000   0.000
 -0.000  -4.803  -0.000  -0.000   0.000  -0.000  -5.334  -0.000
  0.000  -0.000  -4.597  -0.000   0.000   0.000  -0.000  -5.133
 -0.000  -0.000  -0.000  -4.803  -0.000  -0.000  -0.000  -0.000
 -0.000   0.000   0.000  -0.000  -4.597  -0.000   0.000   0.000
  0.000   0.000   0.000   0.000  -0.000   0.000   0.000   0.000
  0.000   0.000   0.000   0.000  -0.000   0.000   0.000   0.000
 -0.000  -0.000   0.000   0.000   0.000  -0.000  -0.000   0.000
  0.000  -0.000  -0.000  -0.000   0.000   0.000  -0.000  -0.000
 -0.000   0.000   0.000  -0.000  -0.000  -0.000   0.000   0.000
 -0.000  -0.000   0.000   0.000   0.000  -0.000  -0.000   0.000
  0.000  -0.000  -0.000  -0.000   0.000   0.000  -0.000  -0.000
 -0.000   0.000   0.000  -0.000  -0.000  -0.000   0.000   0.000
 total augmentation occupancy for first ion, spin component:           1
  2.343   0.000   0.000  -0.000   0.000  -1.290   0.000   0.000   0.000   0.000   0.000   0.000   0.000   0.000   0.000   0.000
  0.000   2.343   0.000   0.000  -0.000   0.000  -1.290   0.000   0.000   0.000   0.000   0.000   0.000   0.000   0.000   0.000
  0.000  -0.000   3.501   0.000   0.000  -0.000   0.000  -2.227   0.000   0.000  -0.000   0.000   0.000   0.000   0.000   0.000
 -0.000   0.000   0.000   2.343  -0.000  -0.000   0.000   0.000  -1.290  -0.000   0.000  -0.000   0.000   0.000   0.000   0.000
  0.000  -0.000   0.000  -0.000   3.501   0.000  -0.000   0.000   0.000  -2.227   0.000  -0.000   0.000   0.000   0.000   0.000
 -1.290   0.000  -0.000  -0.000   0.000   1.633   0.000  -0.000   0.000   0.000  -0.000   0.000   0.000   0.000   0.000   0.000
  0.000  -1.290  -0.000   0.000  -0.000   0.000   1.633   0.000  -0.000  -0.000   0.000   0.000   0.000   0.000   0.000   0.000
  0.000   0.000  -2.227   0.000   0.000  -0.000   0.000   2.209  -0.000   0.000   0.000   0.000   0.000   0.000   0.000   0.000
  0.000   0.000   0.000  -1.290   0.000   0.000  -0.000  -0.000   1.633   0.000   0.000   0.000   0.000   0.000   0.000   0.000
  0.000   0.000   0.000  -0.000  -2.227  -0.000  -0.000   0.000   0.000   2.209   0.000   0.000   0.000   0.000   0.000   0.000
 -0.000  -0.000  -0.000   0.000   0.000  -0.000   0.000   0.000   0.000   0.000   2.369  -0.276   0.000   0.000   0.000   0.000
 -0.000  -0.000   0.000  -0.000  -0.000  -0.000   0.000   0.000   0.000   0.000  -0.276   0.037   0.000   0.000   0.000   0.000
  0.000   0.000   0.000   0.000   0.000   0.000   0.000   0.000   0.000   0.000   0.000   0.000   0.286  -0.000   0.000  -0.025
  0.000   0.000   0.000   0.000   0.000   0.000   0.000   0.000   0.000   0.000   0.000   0.000  -0.000   0.286   0.000  -0.000
  0.000   0.000   0.000   0.000   0.000   0.000   0.000   0.000   0.000   0.000   0.000   0.000  -0.000  -0.000   0.286   0.000
  0.000   0.000   0.000   0.000   0.000   0.000   0.000   0.000   0.000   0.000   0.000   0.000  -0.025   0.000  -0.000   0.002
  0.000   0.000   0.000   0.000   0.000   0.000   0.000   0.000   0.000   0.000   0.000   0.000   0.000  -0.025  -0.000  -0.000
  0.000   0.000   0.000   0.000   0.000   0.000   0.000   0.000   0.000   0.000   0.000   0.000   0.000  -0.000  -0.025  -0.000
 total augmentation occupancy for first ion, spin component:           2
  1.985  -0.000   0.000   0.000   0.000  -0.831   0.000   0.000   0.000   0.000  -0.000   0.000   0.000   0.000   0.000   0.000
 -0.000   1.985  -0.000   0.000  -0.000  -0.000  -0.831   0.000  -0.000  -0.000   0.000  -0.000   0.000   0.000   0.000   0.000
  0.000  -0.000   2.985  -0.000   0.000  -0.000   0.000  -1.301   0.000   0.000  -0.000   0.000   0.000   0.000   0.000   0.000
  0.000   0.000  -0.000   1.985  -0.000  -0.000   0.000   0.000  -0.831   0.000   0.000  -0.000   0.000   0.000   0.000   0.000
  0.000  -0.000   0.000  -0.000   2.985   0.000   0.000   0.000   0.000  -1.301   0.000   0.000   0.000   0.000   0.000   0.000
 -0.831  -0.000  -0.000  -0.000   0.000   0.095   0.000   0.000  -0.000  -0.000   0.000   0.000   0.000   0.000   0.000   0.000
 -0.000  -0.831   0.000  -0.000   0.000   0.000   0.095   0.000  -0.000  -0.000   0.000   0.000   0.000   0.000   0.000   0.000
 -0.000  -0.000  -1.301   0.000   0.000   0.000  -0.000   0.328   0.000   0.000  -0.000   0.000   0.000   0.000   0.000   0.000
 -0.000  -0.000   0.000  -0.831   0.000   0.000   0.000  -0.000   0.095   0.000   0.000   0.000   0.000   0.000   0.000   0.000
 -0.000   0.000   0.000  -0.000  -1.301   0.000   0.000   0.000   0.000   0.328  -0.000  -0.000   0.000   0.000   0.000   0.000
  0.000   0.000   0.000  -0.000  -0.000  -0.000   0.000  -0.000  -0.000   0.000  -0.347   0.101   0.000   0.000   0.000   0.000
  0.000  -0.000   0.000   0.000   0.000   0.000  -0.000   0.000   0.000  -0.000   0.101  -0.018   0.000   0.000   0.000   0.000
  0.000   0.000   0.000   0.000   0.000   0.000   0.000   0.000   0.000   0.000   0.000   0.000  -0.045   0.000   0.000   0.006
  0.000   0.000   0.000   0.000   0.000   0.000   0.000   0.000   0.000   0.000   0.000   0.000   0.000  -0.045   0.000   0.000
  0.000   0.000   0.000   0.000   0.000   0.000   0.000   0.000   0.000   0.000   0.000   0.000   0.000   0.000  -0.045   0.000
  0.000   0.000   0.000   0.000   0.000   0.000   0.000   0.000   0.000   0.000   0.000   0.000   0.006   0.000  -0.000  -0.001
  0.000   0.000   0.000   0.000   0.000   0.000   0.000   0.000   0.000   0.000   0.000   0.000   0.000   0.006   0.000  -0.000
  0.000   0.000   0.000   0.000   0.000   0.000   0.000   0.000   0.000   0.000   0.000   0.000  -0.000   0.000   0.006   0.000


------------------------ aborting loop because EDIFF is reached ----------------------------------------


 


 total charge     
 
# of ion     s       p       d       tot
----------------------------------------
  1        0.477   0.527   6.225   7.229
 


 magnetization (x)
 
# of ion     s       p       d       tot
----------------------------------------
  1       -0.017  -0.073   2.301   2.210
 
    CHARGE:  cpu time    0.0220: real time    0.0135
    FORLOC:  cpu time    0.0000: real time    0.0002
    FORNL :  cpu time    0.0560: real time    0.0278
    STRESS:  cpu time    0.1820: real time    0.0894
    FORCOR:  cpu time    0.0340: real time    0.0169
    FORHAR:  cpu time    0.0040: real time    0.0019
    MIXING:  cpu time    0.0020: real time    0.0009
    OFIELD:  cpu time    0.0000: real time    0.0000

  FORCE on cell =-STRESS in cart. coord.  units (eV):
  Direction    XX          YY          ZZ          XY          YZ          ZX
  --------------------------------------------------------------------------------------
  Alpha Z    59.71178    59.71178    59.71178
  Ewald    -196.13262  -196.13262  -196.13262    -0.00000     0.00000     0.00000
  Hartree    32.16452    32.16452    32.16452    -0.00000    -0.00000    -0.00000
  E(xc)     -39.67808   -39.67808   -39.67808    -0.00000    -0.00000    -0.00000
  Local      58.45517    58.45517    58.45517    -0.00002    -0.00002    -0.00002
  n-local   -27.27149   -26.01755   -25.17701     1.05221    -0.69202    -1.36317
  augment    38.76664    38.76664    38.76664     0.00002     0.00002     0.00002
  Kinetic    73.11539    72.42523    72.16890    -2.26649     1.88942     1.18669
  Fock        0.00000     0.00000     0.00000     0.00000     0.00000     0.00000
  -------------------------------------------------------------------------------------
  Total      -0.29810    -0.29810    -0.29810     0.00000     0.00000    -0.00000
  in kB     -41.26403   -41.26403   -41.26403     0.00000     0.00000    -0.00000
  external pressure =      -41.26 kB  Pullay stress =        0.00 kB


 VOLUME and BASIS-vectors are now :
 -----------------------------------------------------------------------------
  energy-cutoff  :      400.00
  volume of cell :       11.57
      direct lattice vectors                 reciprocal lattice vectors
    -1.425000000  1.425000000  1.425000000     0.000000000  0.350877193  0.350877193
     1.425000000 -1.425000000  1.425000000     0.350877193  0.000000000  0.350877193
     1.425000000  1.425000000 -1.425000000     0.350877193  0.350877193  0.000000000

  length of vectors
     2.468172401  2.468172401  2.468172401     0.496215285  0.496215285  0.496215285


 FORCES acting on ions
    electron-ion (+dipol)            ewald-force                    non-local-force                 convergence-correction
 -----------------------------------------------------------------------------------------------
   0.473E-14 0.253E-14 -.153E-14   0.131E-16 0.134E-14 -.680E-15   0.000E+00 -.517E-25 0.103E-24   0.123E-14 0.678E-14 0.529E-14
 -----------------------------------------------------------------------------------------------
   0.473E-14 0.253E-14 -.153E-14   0.131E-16 0.134E-14 -.680E-15   0.000E+00 -.517E-25 0.103E-24   0.123E-14 0.678E-14 0.529E-14
 
 
 POSITION                                       TOTAL-FORCE (eV/Angst)
 -----------------------------------------------------------------------------------
      0.00000      0.00000      0.00000        -0.000000      0.000000      0.000000
 -----------------------------------------------------------------------------------
    total drift:                                0.000000      0.000000      0.000000


--------------------------------------------------------------------------------------------------------



  FREE ENERGIE OF THE ION-ELECTRON SYSTEM (eV)
  ---------------------------------------------------
  free  energy   TOTEN  =        -8.23510993 eV

  energy  without entropy=       -8.23510993  energy(sigma->0) =       -8.23510993
 


--------------------------------------------------------------------------------------------------------


    POTLOK:  cpu time    0.0440: real time    0.0246


--------------------------------------------------------------------------------------------------------


 writing wavefunctions
     LOOP+:  cpu time   19.3411: real time   10.0249
    4ORBIT:  cpu time    0.0000: real time    0.0000
 


 total charge     
 
# of ion     s       p       d       tot
----------------------------------------
  1        0.477   0.527   6.225   7.229
 


 magnetization (x)
 
# of ion     s       p       d       tot
----------------------------------------
  1       -0.017  -0.073   2.301   2.210
 
 BZINTS: Fermi energy:  5.561731;  8.000000 electrons
         Band energy:  27.357569;  BLOECHL correction: -0.064443

 total amount of memory used by VASP on root node    32763. kBytes
========================================================================

   base      :      30000. kBytes
   nonl-proj :        857. kBytes
   fftplans  :        302. kBytes
   grid      :        954. kBytes
   one-center:         31. kBytes
   wavefun   :        619. kBytes
 
  
  
 General timing and accounting informations for this job:
 ========================================================
  
                  Total CPU time used (sec):       19.952
                            User time (sec):       19.312
                          System time (sec):        0.640
                         Elapsed time (sec):       11.599
  
                   Maximum memory used (kb):       34964.
                   Average memory used (kb):           0.
  
                          Minor page faults:        18543
                          Major page faults:            7
                 Voluntary context switches:          486
