Fe BCC                                  
   2.82500000000000     
    -0.500000    0.500000    0.500000
     0.500000   -0.500000    0.500000
     0.500000    0.500000   -0.500000
   Fe
     1
Direct
  0.000000  0.000000  0.000000
 
   32   32   32
  95.465      93.264      86.982      77.498      66.010      53.764      41.845      31.074      22.004      14.942    
  9.9575      6.8763      5.2839      4.5894      4.2020      3.9611      3.8800      3.9611      4.2020      4.5894    
  5.2839      6.8763      9.9575      14.942      22.004      31.074      41.845      53.764      66.010      77.498    
  86.982      93.264      93.264      92.536      87.634      79.259      68.509      56.621      44.728      33.729    
  24.254      16.681      11.154      7.5795      5.6174      4.7284      4.2914      4.0035      3.8707      3.8974    
  4.0830      4.4194      4.9448      6.1233      8.5724      12.774      18.987      27.225      37.266      48.649    
  60.656      72.299      82.390      89.710      86.982      87.634      84.252      77.326      67.797      56.817    
  45.511      34.813      25.404      17.718      11.960      8.1029      5.8838      4.8289      4.3420      4.0196    
  3.8428      3.8178      3.9450      4.2215      4.6372      5.4369      7.2122      10.493      15.621      22.700    
  31.600      41.960      53.175      64.385      74.513      82.390      77.498      79.259      77.326      71.985    
  63.984      54.334      44.091      34.175      25.285      17.889      12.231      8.3407      6.0216      4.8715    
  4.3475      4.0051      3.7959      3.7269      3.7985      4.0107      4.3570      4.8868      6.0486      8.3920    
  12.326      18.048      25.526      34.501      44.487      54.761      64.385      72.299      66.010      68.509    
  67.797      63.984      57.619      49.543      40.693      31.929      23.932      17.175      11.923      8.2422    
  5.9921      4.8392      4.3057      3.9582      3.7301      3.6283      3.6519      3.8021      4.0793      4.4754    
  5.1740      6.6800      9.4459      13.753      19.671      27.048      35.516      44.487      53.175      60.656    
  53.764      56.621      56.817      54.334      49.543      43.104      35.809      28.420      21.569      15.706    
  11.097      7.8251      5.7932      4.7280      4.2194      3.8799      3.6466      3.5246      3.5116      3.6076    
  3.8163      4.1381      4.5838      5.4517      7.1991      10.171      14.532      20.241      27.048      34.501    
  41.960      48.649      41.845      44.728      45.511      44.091      40.693      35.809      30.074      24.137    
  18.550      13.722      9.8987      7.1683      5.4600      4.5508      4.0950      3.7744      3.5479      3.4184    
  3.3814      3.4347      3.5825      3.8312      4.1802      4.6749      5.6539      7.4910      10.429      14.532    
  19.671      25.526      31.600      37.266      31.074      33.729      34.813      34.175      31.929      28.420    
  24.137      19.601      15.276      11.511      8.5221      6.3877      5.0526      4.3332      3.9421      3.6485    
  3.4385      3.3122      3.2631      3.2869      3.3859      3.5683      3.8419      4.2043      4.7281      5.7279    
  7.4910      10.171      13.753      18.048      22.700      27.225      22.004      24.254      25.404      25.285    
  23.932      21.569      18.550      15.276      12.115      9.3504      7.1591      5.6041      4.6368      4.1037    
  3.7721      3.5109      3.3240      3.2089      3.1577      3.1641      3.2283      3.3569      3.5606      3.8470    
  4.2122      4.7281      5.6539      7.1991      9.4459      12.326      15.621      18.987      14.942      16.681    
  17.718      17.889      17.175      15.706      13.722      11.511      9.3504      7.4565      5.9638      4.9155    
  4.2649      3.8816      3.5967      3.3710      3.2107      3.1116      3.0653      3.0643      3.1066      3.1963    
  3.3432      3.5581      3.8470      4.2043      4.6749      5.4517      6.6800      8.3920      10.493      12.774    
  9.9575      11.154      11.960      12.231      11.923      11.097      9.8987      8.5221      7.1591      5.9638    
  5.0287      4.3769      3.9604      3.6694      3.4265      3.2374      3.1048      3.0238      2.9862      2.9846    
  3.0153      3.0802      3.1862      3.3432      3.5606      3.8419      4.1802      4.5838      5.1740      6.0486    
  7.2122      8.5724      6.8763      7.5795      8.1029      8.3407      8.2422      7.8251      7.1683      6.3877    
  5.6041      4.9155      4.3769      3.9918      3.7106      3.4702      3.2702      3.1172      3.0115      2.9484    
  2.9210      2.9225      2.9490      3.0002      3.0802      3.1963      3.3569      3.5683      3.8312      4.1381    
  4.4754      4.8868      5.4369      6.1233      5.2839      5.6174      5.8838      6.0216      5.9921      5.7932    
  5.4600      5.0526      4.6368      4.2649      3.9604      3.7106      3.4868      3.2924      3.1342      3.0151    
  2.9342      2.8877      2.8702      2.8766      2.9033      2.9490      3.0153      3.1066      3.2283      3.3859    
  3.5825      3.8163      4.0793      4.3570      4.6372      4.9448      4.5894      4.7284      4.8289      4.8715    
  4.8392      4.7280      4.5508      4.3332      4.1037      3.8816      3.6694      3.4702      3.2924      3.1419    
  3.0220      2.9334      2.8747      2.8429      2.8348      2.8469      2.8766      2.9225      2.9846      3.0643    
  3.1641      3.2869      3.4347      3.6076      3.8021      4.0107      4.2215      4.4194      4.2020      4.2914    
  4.3420      4.3475      4.3057      4.2194      4.0950      3.9421      3.7721      3.5967      3.4265      3.2702    
  3.1342      3.0220      2.9350      2.8725      2.8330      2.8148      2.8159      2.8348      2.8702      2.9210    
  2.9862      3.0653      3.1577      3.2631      3.3814      3.5116      3.6519      3.7985      3.9450      4.0830    
  3.9611      4.0035      4.0196      4.0051      3.9582      3.8799      3.7744      3.6485      3.5109      3.3710    
  3.2374      3.1172      3.0151      2.9334      2.8725      2.8313      2.8086      2.8033      2.8148      2.8429    
  2.8877      2.9484      3.0238      3.1116      3.2089      3.3122      3.4184      3.5246      3.6283      3.7269    
  3.8178      3.8974      3.8800      3.8707      3.8428      3.7959      3.7301      3.6466      3.5479      3.4385    
  3.3240      3.2107      3.1048      3.0115      2.9342      2.8747      2.8330      2.8086      2.8005      2.8086    
  2.8330      2.8747      2.9342      3.0115      3.1048      3.2107      3.3240      3.4385      3.5479      3.6466    
  3.7301      3.7959      3.8428      3.8707      3.9611      3.8974      3.8178      3.7269      3.6283      3.5246    
  3.4184      3.3122      3.2089      3.1116      3.0238      2.9484      2.8877      2.8429      2.8148      2.8033    
  2.8086      2.8313      2.8725      2.9334      3.0151      3.1172      3.2374      3.3710      3.5109      3.6485    
  3.7744      3.8799      3.9582      4.0051      4.0196      4.0035      4.2020      4.0830      3.9450      3.7985    
  3.6519      3.5116      3.3814      3.2631      3.1577      3.0653      2.9862      2.9210      2.8702      2.8348    
  2.8159      2.8148      2.8330      2.8725      2.9350      3.0220      3.1342      3.2702      3.4265      3.5967    
  3.7721      3.9421      4.0950      4.2194      4.3057      4.3475      4.3420      4.2914      4.5894      4.4194    
  4.2215      4.0107      3.8021      3.6076      3.4347      3.2869      3.1641      3.0643      2.9846      2.9225    
  2.8766      2.8469      2.8348      2.8429      2.8747      2.9334      3.0220      3.1419      3.2924      3.4702    
  3.6694      3.8816      4.1037      4.3332      4.5508      4.7280      4.8392      4.8715      4.8289      4.7284    
  5.2839      4.9448      4.6372      4.3570      4.0793      3.8163      3.5825      3.3859      3.2283      3.1066    
  3.0153      2.9490      2.9033      2.8766      2.8702      2.8877      2.9342      3.0151      3.1342      3.2924    
  3.4868      3.7106      3.9604      4.2649      4.6368      5.0526      5.4600      5.7932      5.9921      6.0216    
  5.8838      5.6174      6.8763      6.1233      5.4369      4.8868      4.4754      4.1381      3.8312      3.5683    
  3.3569      3.1963      3.0802      3.0002      2.9490      2.9225      2.9210      2.9484      3.0115      3.1172    
  3.2702      3.4702      3.7106      3.9918      4.3769      4.9155      5.6041      6.3877      7.1683      7.8251    
  8.2422      8.3407      8.1029      7.5795      9.9575      8.5724      7.2122      6.0486      5.1740      4.5838    
  4.1802      3.8419      3.5606      3.3432      3.1862      3.0802      3.0153      2.9846      2.9862      3.0238    
  3.1048      3.2374      3.4265      3.6694      3.9604      4.3769      5.0287      5.9638      7.1591      8.5221    
  9.8987      11.097      11.923      12.231      11.960      11.154      14.942      12.774      10.493      8.3920    
  6.6800      5.4517      4.6749      4.2043      3.8470      3.5581      3.3432      3.1963      3.1066      3.0643    
  3.0653      3.1116      3.2107      3.3710      3.5967      3.8816      4.2649      4.9155      5.9638      7.4565    
  9.3504      11.511      13.722      15.706      17.175      17.889      17.718      16.681      22.004      18.987    
  15.621      12.326      9.4459      7.1991      5.6539      4.7281      4.2122      3.8470      3.5606      3.3569    
  3.2283      3.1641      3.1577      3.2089      3.3240      3.5109      3.7721      4.1037      4.6368      5.6041    
  7.1591      9.3504      12.115      15.276      18.550      21.569      23.932      25.285      25.404      24.254    
  31.074      27.225      22.700      18.048      13.753      10.171      7.4910      5.7279      4.7281      4.2043    
  3.8419      3.5683      3.3859      3.2869      3.2631      3.3122      3.4385      3.6485      3.9421      4.3332    
  5.0526      6.3877      8.5221      11.511      15.276      19.601      24.137      28.420      31.929      34.175    
  34.813      33.729      41.845      37.266      31.600      25.526      19.671      14.532      10.429      7.4910    
  5.6539      4.6749      4.1802      3.8312      3.5825      3.4347      3.3814      3.4184      3.5479      3.7744    
  4.0950      4.5508      5.4600      7.1683      9.8987      13.722      18.550      24.137      30.074      35.809    
  40.693      44.091      45.511      44.728      53.764      48.649      41.960      34.501      27.048      20.241    
  14.532      10.171      7.1991      5.4517      4.5838      4.1381      3.8163      3.6076      3.5116      3.5246    
  3.6466      3.8799      4.2194      4.7280      5.7932      7.8251      11.097      15.706      21.569      28.420    
  35.809      43.104      49.543      54.334      56.817      56.621      66.010      60.656      53.175      44.487    
  35.516      27.048      19.671      13.753      9.4459      6.6800      5.1740      4.4754      4.0793      3.8021    
  3.6519      3.6283      3.7301      3.9582      4.3057      4.8392      5.9921      8.2422      11.923      17.175    
  23.932      31.929      40.693      49.543      57.619      63.984      67.797      68.509      77.498      72.299    
  64.385      54.761      44.487      34.501      25.526      18.048      12.326      8.3920      6.0486      4.8868    
  4.3570      4.0107      3.7985      3.7269      3.7959      4.0051      4.3475      4.8715      6.0216      8.3407    
  12.231      17.889      25.285      34.175      44.091      54.334      63.984      71.985      77.326      79.259    
  86.982      82.390      74.513      64.385      53.175      41.960      31.600      22.700      15.621      10.493    
  7.2122      5.4369      4.6372      4.2215      3.9450      3.8178      3.8428      4.0196      4.3420      4.8289    
  5.8838      8.1029      11.960      17.718      25.404      34.813      45.511      56.817      67.797      77.326    
  84.252      87.634      93.264      89.710      82.390      72.299      60.656      48.649      37.266      27.225    
  18.987      12.774      8.5724      6.1233      4.9448      4.4194      4.0830      3.8974      3.8707      4.0035    
  4.2914      4.7284      5.6174      7.5795      11.154      16.681      24.254      33.729      44.728      56.621    
  68.509      79.259      87.634      92.536      93.264      92.536      87.634      79.259      68.509      56.621    
  44.728      33.729      24.254      16.681      11.154      7.5795      5.6174      4.7284      4.2914      4.0035    
  3.8707      3.8974      4.0830      4.4194      4.9448      6.1233      8.5724      12.774      18.987      27.225    
  37.266      48.649      60.656      72.299      82.390      89.710      92.536      93.264      89.710      82.390    
  72.299      60.656      48.649      37.266      27.225      18.987      12.774      8.5724      6.1233      4.9448    
  4.4194      4.0830      3.8974      3.8707      4.0035      4.2914      4.7284      5.6174      7.5795      11.154    
  16.681      24.254      33.729      44.728      56.621      68.509      79.259      87.634      87.634      89.710    
  87.634      81.712      72.770      61.938      50.396      39.172      29.051      20.558      13.982      9.3793    
  6.5679      5.1356      4.5064      4.1343      3.9038      3.8265      3.9038      4.1343      4.5064      5.1356    
  6.5679      9.3793      13.982      20.558      29.051      39.172      50.396      61.938      72.770      81.712    
  79.259      82.390      81.712      77.326      69.857      60.287      49.721      39.176      29.464      21.153    
  14.577      9.8514      6.8602      5.2642      4.5466      4.1510      3.8874      3.7670      3.7916      3.9613    
  4.2720      4.7295      5.6789      7.6974      11.254      16.618      23.826      32.687      42.782      53.453    
  63.805      72.770      68.509      72.299      72.770      69.857      63.984      55.951      46.736      37.293    
  28.416      20.685      14.462      9.8981      6.9332      5.2954      4.5353      4.1292      3.8462      3.6938    
  3.6734      3.7850      4.0292      4.3976      4.9923      6.2977      8.8136      12.884      18.642      25.998    
  34.642      44.044      53.453      61.938      56.621      60.656      61.938      60.287      55.951      49.543    
  41.881      33.814      26.082      19.244      13.664      9.5116      6.7656      5.2118      4.4689      4.0683    
  3.7801      3.6087      3.5543      3.6156      3.7949      4.0931      4.5072      5.2730      6.8729      9.7033    
  13.986      19.737      26.758      34.642      42.782      50.396      44.728      48.649      50.396      49.721    
  46.736      41.881      35.809      29.236      22.818      17.067      12.326      8.7658      6.3872      5.0219    
  4.3511      3.9717      3.6910      3.5135      3.4375      3.4598      3.5821      3.8098      4.1432      4.6055    
  5.5129      7.2788      10.195      14.375      19.737      25.998      32.687      39.172      33.729      37.266    
  39.172      39.176      37.293      33.814      29.236      24.137      19.069      14.477      10.666      7.7934    
  5.8689      4.7572      4.1939      3.8463      3.5834      3.4111      3.3256      3.3215      3.3986      3.5630    
  3.8224      4.1755      4.6774      5.6512      7.4250      10.195      13.986      18.642      23.826      29.051    
  24.254      27.225      29.051      29.464      28.416      26.082      22.818      19.069      15.276      11.808    
  8.9221      6.7497      5.3000      4.4611      4.0134      3.7013      3.4636      3.3052      3.2203      3.2017    
  3.2469      3.3605      3.5522      3.8300      4.1910      4.7039      5.6512      7.2788      9.7033      12.884    
  16.618      20.558      16.681      18.987      20.558      21.153      20.685      19.244      17.067      14.477    
  11.808      9.3504      7.3050      5.7757      4.7640      4.1736      3.8222      3.5470      3.3392      3.2003    
  3.1233      3.0999      3.1256      3.2026      3.3394      3.5470      3.8323      4.1910      4.6774      5.5129    
  6.8729      8.8136      11.254      13.982      11.154      12.774      13.982      14.577      14.462      13.664    
  12.326      10.666      8.9221      7.3050      5.9638      4.9706      4.3171      3.9176      3.6297      3.3938    
  3.2179      3.1012      3.0364      3.0148      3.0310      3.0847      3.1820      3.3326      3.5470      3.8300    
  4.1755      4.6055      5.2730      6.2977      7.6974      9.3793      7.5795      8.5724      9.3793      9.8514    
  9.8981      9.5116      8.7658      7.7934      6.7497      5.7757      4.9706      4.3769      3.9756      3.6891    
  3.4462      3.2504      3.1066      3.0124      2.9613      2.9454      2.9589      3.0000      3.0719      3.1820    
  3.3394      3.5522      3.8224      4.1432      4.5072      4.9923      5.6789      6.5679      5.6174      6.1233    
  6.5679      6.8602      6.9332      6.7656      6.3872      5.8689      5.3000      4.7640      4.3171      3.9756    
  3.7106      3.4783      3.2803      3.1237      3.0103      2.9375      2.8998      2.8909      2.9057      2.9418    
  3.0000      3.0847      3.2026      3.3605      3.5630      3.8098      4.0931      4.3976      4.7295      5.1356    
  4.7284      4.9448      5.1356      5.2642      5.2954      5.2118      5.0219      4.7572      4.4611      4.1736    
  3.9176      3.6891      3.4783      3.2924      3.1378      3.0177      2.9320      2.8785      2.8531      2.8515    
  2.8698      2.9057      2.9589      3.0310      3.1256      3.2469      3.3986      3.5821      3.7949      4.0292    
  4.2720      4.5064      4.2914      4.4194      4.5064      4.5466      4.5353      4.4689      4.3511      4.1939    
  4.0134      3.8222      3.6297      3.4462      3.2803      3.1378      3.0220      2.9340      2.8727      2.8363    
  2.8223      2.8280      2.8515      2.8909      2.9454      3.0148      3.0999      3.2017      3.3215      3.4598    
  3.6156      3.7850      3.9613      4.1343      4.0035      4.0830      4.1343      4.1510      4.1292      4.0683    
  3.9717      3.8463      3.7013      3.5470      3.3938      3.2504      3.1237      3.0177      2.9340      2.8725    
  2.8319      2.8109      2.8080      2.8223      2.8531      2.8998      2.9613      3.0364      3.1233      3.2203    
  3.3256      3.4375      3.5543      3.6734      3.7916      3.9038      3.8707      3.8974      3.9038      3.8874    
  3.8462      3.7801      3.6910      3.5834      3.4636      3.3392      3.2179      3.1066      3.0103      2.9320    
  2.8727      2.8319      2.8086      2.8017      2.8109      2.8363      2.8785      2.9375      3.0124      3.1012    
  3.2003      3.3052      3.4111      3.5135      3.6087      3.6938      3.7670      3.8265      3.8974      3.8707    
  3.8265      3.7670      3.6938      3.6087      3.5135      3.4111      3.3052      3.2003      3.1012      3.0124    
  2.9375      2.8785      2.8363      2.8109      2.8017      2.8086      2.8319      2.8727      2.9320      3.0103    
  3.1066      3.2179      3.3392      3.4636      3.5834      3.6910      3.7801      3.8462      3.8874      3.9038    
  4.0830      4.0035      3.9038      3.7916      3.6734      3.5543      3.4375      3.3256      3.2203      3.1233    
  3.0364      2.9613      2.8998      2.8531      2.8223      2.8080      2.8109      2.8319      2.8725      2.9340    
  3.0177      3.1237      3.2504      3.3938      3.5470      3.7013      3.8463      3.9717      4.0683      4.1292    
  4.1510      4.1343      4.4194      4.2914      4.1343      3.9613      3.7850      3.6156      3.4598      3.3215    
  3.2017      3.0999      3.0148      2.9454      2.8909      2.8515      2.8280      2.8223      2.8363      2.8727    
  2.9340      3.0220      3.1378      3.2803      3.4462      3.6297      3.8222      4.0134      4.1939      4.3511    
  4.4689      4.5353      4.5466      4.5064      4.9448      4.7284      4.5064      4.2720      4.0292      3.7949    
  3.5821      3.3986      3.2469      3.1256      3.0310      2.9589      2.9057      2.8698      2.8515      2.8531    
  2.8785      2.9320      3.0177      3.1378      3.2924      3.4783      3.6891      3.9176      4.1736      4.4611    
  4.7572      5.0219      5.2118      5.2954      5.2642      5.1356      6.1233      5.6174      5.1356      4.7295    
  4.3976      4.0931      3.8098      3.5630      3.3605      3.2026      3.0847      3.0000      2.9418      2.9057    
  2.8909      2.8998      2.9375      3.0103      3.1237      3.2803      3.4783      3.7106      3.9756      4.3171    
  4.7640      5.3000      5.8689      6.3872      6.7656      6.9332      6.8602      6.5679      8.5724      7.5795    
  6.5679      5.6789      4.9923      4.5072      4.1432      3.8224      3.5522      3.3394      3.1820      3.0719    
  3.0000      2.9589      2.9454      2.9613      3.0124      3.1066      3.2504      3.4462      3.6891      3.9756    
  4.3769      4.9706      5.7757      6.7497      7.7934      8.7658      9.5116      9.8981      9.8514      9.3793    
  12.774      11.154      9.3793      7.6974      6.2977      5.2730      4.6055      4.1755      3.8300      3.5470    
  3.3326      3.1820      3.0847      3.0310      3.0148      3.0364      3.1012      3.2179      3.3938      3.6297    
  3.9176      4.3171      4.9706      5.9638      7.3050      8.9221      10.666      12.326      13.664      14.462    
  14.577      13.982      18.987      16.681      13.982      11.254      8.8136      6.8729      5.5129      4.6774    
  4.1910      3.8323      3.5470      3.3394      3.2026      3.1256      3.0999      3.1233      3.2003      3.3392    
  3.5470      3.8222      4.1736      4.7640      5.7757      7.3050      9.3504      11.808      14.477      17.067    
  19.244      20.685      21.153      20.558      27.225      24.254      20.558      16.618      12.884      9.7033    
  7.2788      5.6512      4.7039      4.1910      3.8300      3.5522      3.3605      3.2469      3.2017      3.2203    
  3.3052      3.4636      3.7013      4.0134      4.4611      5.3000      6.7497      8.9221      11.808      15.276    
  19.069      22.818      26.082      28.416      29.464      29.051      37.266      33.729      29.051      23.826    
  18.642      13.986      10.195      7.4250      5.6512      4.6774      4.1755      3.8224      3.5630      3.3986    
  3.3215      3.3256      3.4111      3.5834      3.8463      4.1939      4.7572      5.8689      7.7934      10.666    
  14.477      19.069      24.137      29.236      33.814      37.293      39.176      39.172      48.649      44.728    
  39.172      32.687      25.998      19.737      14.375      10.195      7.2788      5.5129      4.6055      4.1432    
  3.8098      3.5821      3.4598      3.4375      3.5135      3.6910      3.9717      4.3511      5.0219      6.3872    
  8.7658      12.326      17.067      22.818      29.236      35.809      41.881      46.736      49.721      50.396    
  60.656      56.621      50.396      42.782      34.642      26.758      19.737      13.986      9.7033      6.8729    
  5.2730      4.5072      4.0931      3.7949      3.6156      3.5543      3.6087      3.7801      4.0683      4.4689    
  5.2118      6.7656      9.5116      13.664      19.244      26.082      33.814      41.881      49.543      55.951    
  60.287      61.938      72.299      68.509      61.938      53.453      44.044      34.642      25.998      18.642    
  12.884      8.8136      6.2977      4.9923      4.3976      4.0292      3.7850      3.6734      3.6938      3.8462    
  4.1292      4.5353      5.2954      6.9332      9.8981      14.462      20.685      28.416      37.293      46.736    
  55.951      63.984      69.857      72.770      82.390      79.259      72.770      63.805      53.453      42.782    
  32.687      23.826      16.618      11.254      7.6974      5.6789      4.7295      4.2720      3.9613      3.7916    
  3.7670      3.8874      4.1510      4.5466      5.2642      6.8602      9.8514      14.577      21.153      29.464    
  39.176      49.721      60.287      69.857      77.326      81.712      89.710      87.634      81.712      72.770    
  61.938      50.396      39.172      29.051      20.558      13.982      9.3793      6.5679      5.1356      4.5064    
  4.1343      3.9038      3.8265      3.9038      4.1343      4.5064      5.1356      6.5679      9.3793      13.982    
  20.558      29.051      39.172      50.396      61.938      72.770      81.712      87.634      86.982      87.634    
  84.252      77.326      67.797      56.817      45.511      34.813      25.404      17.718      11.960      8.1029    
  5.8838      4.8289      4.3420      4.0196      3.8428      3.8178      3.9450      4.2215      4.6372      5.4369    
  7.2122      10.493      15.621      22.700      31.600      41.960      53.175      64.385      74.513      82.390    
  87.634      89.710      87.634      81.712      72.770      61.938      50.396      39.172      29.051      20.558    
  13.982      9.3793      6.5679      5.1356      4.5064      4.1343      3.9038      3.8265      3.9038      4.1343    
  4.5064      5.1356      6.5679      9.3793      13.982      20.558      29.051      39.172      50.396      61.938    
  72.770      81.712      84.252      87.634      86.982      82.390      74.513      64.385      53.175      41.960    
  31.600      22.700      15.621      10.493      7.2122      5.4369      4.6372      4.2215      3.9450      3.8178    
  3.8428      4.0196      4.3420      4.8289      5.8838      8.1029      11.960      17.718      25.404      34.813    
  45.511      56.817      67.797      77.326      77.326      81.712      82.390      79.259      72.770      63.805    
  53.453      42.782      32.687      23.826      16.618      11.254      7.6974      5.6789      4.7295      4.2720    
  3.9613      3.7916      3.7670      3.8874      4.1510      4.5466      5.2642      6.8602      9.8514      14.577    
  21.153      29.464      39.176      49.721      60.287      69.857      67.797      72.770      74.513      72.770    
  67.797      60.287      51.195      41.523      32.154      23.766      16.812      11.526      7.9243      5.8059    
  4.7680      4.2798      3.9488      3.7475      3.6805      3.7475      3.9488      4.2798      4.7680      5.8059    
  7.9243      11.526      16.812      23.766      32.154      41.523      51.195      60.287      56.817      61.938    
  64.385      63.805      60.287      54.334      46.736      38.382      30.098      22.543      16.178      11.260    
  7.8436      5.7818      4.7382      4.2426      3.9055      3.6855      3.5868      3.6079      3.7495      4.0130    
  4.3904      5.0187      6.3680      8.8788      12.832      18.307      25.174      33.095      41.523      49.721    
  45.511      50.396      53.175      53.453      51.195      46.736      40.693      33.814      26.833      20.359    
  14.832      10.510      7.4690      5.6036      4.6365      4.1624      3.8321      3.6065      3.4884      3.4744    
  3.5641      3.7614      4.0680      4.4856      5.2611      6.8321      9.5370      13.545      18.832      25.174    
  32.154      39.176      34.813      39.172      41.960      42.782      41.523      38.382      33.814      28.420    
  22.818      17.543      12.994      9.4096      6.8717      5.3023      4.4745      4.0453      3.7326      3.5131    
  3.3876      3.3505      3.3995      3.5384      3.7741      4.1072      4.5635      5.4383      7.0938      9.7713    
  13.545      18.307      23.766      29.464      25.404      29.051      31.600      32.687      32.154      30.098    
  26.833      22.818      18.550      14.477      10.936      8.1391      6.1582      4.9324      4.2746      3.9004    
  3.6134      3.4093      3.2866      3.2381      3.2590      3.3514      3.5233      3.7830      4.1296      4.6088    
  5.5032      7.0938      9.5370      12.832      16.812      21.153      17.718      20.558      22.700      23.826    
  23.766      22.543      20.359      17.543      14.477      11.511      8.9221      6.8793      5.4409      4.5537    
  4.0616      3.7383      3.4826      3.3005      3.1884      3.1378      3.1423      3.2016      3.3223      3.5149    
  3.7873      4.1368      4.6088      5.4383      6.8321      8.8788      11.526      14.577      11.960      13.982    
  15.621      16.618      16.812      16.178      14.832      12.994      10.936      8.9221      7.1591      5.7757    
  4.8105      4.2131      3.8511      3.5704      3.3494      3.1928      3.0959      3.0500      3.0475      3.0861    
  3.1701      3.3085      3.5121      3.7873      4.1296      4.5635      5.2611      6.3680      7.9243      9.8514    
  8.1029      9.3793      10.493      11.254      11.526      11.260      10.510      9.4096      8.1391      6.8793    
  5.7757      4.9155      4.3171      3.9300      3.6459      3.4071      3.2219      3.0921      3.0126      2.9750    
  2.9719      2.9998      3.0603      3.1600      3.3085      3.5149      3.7830      4.1072      4.4856      5.0187    
  5.8059      6.8602      5.8838      6.5679      7.2122      7.6974      7.9243      7.8436      7.4690      6.8717    
  6.1582      5.4409      4.8105      4.3171      3.9604      3.6891      3.4528      3.2568      3.1071      3.0034    