Fe BCC                                  
   2.82500000000000     
    -0.500000    0.500000    0.500000
     0.500000   -0.500000    0.500000
     0.500000    0.500000   -0.500000
   Fe
     1
Direct
  0.000000  0.000000  0.000000
 
   32   32   32
 0.95465173410E+02 0.93263663802E+02 0.86982190782E+02 0.77498097074E+02 0.66009822699E+02
 0.53763940402E+02 0.41844564371E+02 0.31073882800E+02 0.22004035948E+02 0.14941701142E+02
 0.99575036708E+01 0.68763392715E+01 0.52839012125E+01 0.45893603863E+01 0.42020073708E+01
 0.39610654309E+01 0.38799864502E+01 0.39610654309E+01 0.42020073708E+01 0.45893603863E+01
 0.52839012125E+01 0.68763392715E+01 0.99575036708E+01 0.14941701142E+02 0.22004035948E+02
 0.31073882800E+02 0.41844564371E+02 0.53763940402E+02 0.66009822699E+02 0.77498097074E+02
 0.86982190782E+02 0.93263663802E+02 0.93263663802E+02 0.92536053558E+02 0.87634497939E+02
 0.79258629752E+02 0.68509023252E+02 0.56620712113E+02 0.44727979753E+02 0.33729276389E+02
 0.24253890938E+02 0.16680757942E+02 0.11154482929E+02 0.75795312205E+01 0.56173690381E+01
 0.47284163562E+01 0.42914498791E+01 0.40035317439E+01 0.38707391095E+01 0.38974065094E+01
 0.40829701411E+01 0.44194164018E+01 0.49447739671E+01 0.61233015721E+01 0.85724176034E+01
 0.12773707465E+02 0.18986547419E+02 0.27224975864E+02 0.37266062810E+02 0.48649348691E+02
 0.60655627587E+02 0.72298919847E+02 0.82390247837E+02 0.89709909355E+02 0.86982190782E+02
 0.87634497939E+02 0.84252081099E+02 0.77325868610E+02 0.67796603560E+02 0.56816947879E+02
 0.45511165012E+02 0.34812952685E+02 0.25403877704E+02 0.17718169855E+02 0.11959976716E+02
 0.81028777666E+01 0.58837513379E+01 0.48288637755E+01 0.43420085668E+01 0.40195782061E+01
 0.38428224153E+01 0.38178356469E+01 0.39450159886E+01 0.42214708106E+01 0.46372244291E+01
 0.54369379350E+01 0.72122255298E+01 0.10493275500E+02 0.15620779050E+02 0.22700154937E+02
 0.31600498728E+02 0.41960078431E+02 0.53174674681E+02 0.64385000204E+02 0.74512726545E+02
 0.82390247837E+02 0.77498097074E+02 0.79258629752E+02 0.77325868610E+02 0.71985435116E+02
 0.63983834401E+02 0.54334347354E+02 0.44091274372E+02 0.34174866197E+02 0.25285277267E+02
 0.17888979086E+02 0.12231462682E+02 0.83406855316E+01 0.60215533528E+01 0.48714721857E+01
 0.43474506186E+01 0.40051052030E+01 0.37959232231E+01 0.37269247105E+01 0.37984687092E+01
 0.40106609513E+01 0.43569656063E+01 0.48868177931E+01 0.60486111496E+01 0.83919586448E+01
 0.12325882861E+02 0.18048127213E+02 0.25526208878E+02 0.34501443061E+02 0.44487158492E+02
 0.54760919965E+02 0.64385000204E+02 0.72298919847E+02 0.66009822699E+02 0.68509023252E+02
 0.67796603560E+02 0.63983834401E+02 0.57619138570E+02 0.49543316300E+02 0.40693171477E+02
 0.31928909340E+02 0.23932305664E+02 0.17175149885E+02 0.11923452474E+02 0.82421835571E+01
 0.59920672119E+01 0.48391677120E+01 0.43057393163E+01 0.39582101515E+01 0.37301310099E+01
 0.36282600154E+01 0.36519392617E+01 0.38020694748E+01 0.40792701596E+01 0.44753587416E+01
 0.51740182370E+01 0.66799978881E+01 0.94458625992E+01 0.13753381817E+02 0.19671327599E+02
 0.27048472716E+02 0.35515858077E+02 0.44487158492E+02 0.53174674681E+02 0.60655627587E+02
 0.53763940402E+02 0.56620712113E+02 0.56816947879E+02 0.54334347354E+02 0.49543316300E+02
 0.43104369738E+02 0.35808628012E+02 0.28420248256E+02 0.21569265192E+02 0.15706252905E+02
 0.11096798717E+02 0.78251011799E+01 0.57932137116E+01 0.47279577949E+01 0.42193782025E+01
 0.38799233709E+01 0.36465799240E+01 0.35246221982E+01 0.35116378290E+01 0.36075643933E+01
 0.38162592261E+01 0.41381029329E+01 0.45837832571E+01 0.54516787914E+01 0.71990853914E+01
 0.10170884967E+02 0.14531798634E+02 0.20240858354E+02 0.27048472716E+02 0.34501443061E+02
 0.41960078431E+02 0.48649348691E+02 0.41844564371E+02 0.44727979753E+02 0.45511165012E+02
 0.44091274372E+02 0.40693171477E+02 0.35808628012E+02 0.30074325381E+02 0.24137026062E+02
 0.18550418830E+02 0.13721956970E+02 0.98987184333E+01 0.71683361533E+01 0.54600177644E+01
 0.45507582694E+01 0.40949562592E+01 0.37743964586E+01 0.35479302560E+01 0.34184317569E+01
 0.33813849657E+01 0.34347354367E+01 0.35824961431E+01 0.38312340820E+01 0.41801514656E+01
 0.46748964000E+01 0.56538864314E+01 0.74910113841E+01 0.10428682827E+02 0.14531798634E+02
 0.19671327599E+02 0.25526208878E+02 0.31600498728E+02 0.37266062810E+02 0.31073882800E+02
 0.33729276389E+02 0.34812952685E+02 0.34174866197E+02 0.31928909340E+02 0.28420248256E+02
 0.24137026062E+02 0.19601220749E+02 0.15276127874E+02 0.11511267122E+02 0.85220820512E+01
 0.63876628663E+01 0.50525701873E+01 0.43332103119E+01 0.39421034952E+01 0.36484988618E+01
 0.34384968296E+01 0.33122102799E+01 0.32631263185E+01 0.32869319623E+01 0.33859458352E+01
 0.35682938810E+01 0.38418565947E+01 0.42042782769E+01 0.47281181441E+01 0.57278672402E+01
 0.74910113841E+01 0.10170884967E+02 0.13753381817E+02 0.18048127213E+02 0.22700154937E+02
 0.27224975864E+02 0.22004035948E+02 0.24253890938E+02 0.25403877704E+02 0.25285277267E+02
 0.23932305664E+02 0.21569265192E+02 0.18550418830E+02 0.15276127874E+02 0.12114745033E+02
 0.93503526857E+01 0.71591446510E+01 0.56041270161E+01 0.46367923884E+01 0.41037161960E+01
 0.37721447259E+01 0.35109242822E+01 0.33239529530E+01 0.32088519459E+01 0.31576530454E+01
 0.31641465909E+01 0.32282886898E+01 0.33569151432E+01 0.35606030639E+01 0.38469586734E+01
 0.42121881902E+01 0.47281181441E+01 0.56538864314E+01 0.71990853914E+01 0.94458625992E+01
 0.12325882861E+02 0.15620779050E+02 0.18986547419E+02 0.14941701142E+02 0.16680757942E+02
 0.17718169855E+02 0.17888979086E+02 0.17175149885E+02 0.15706252905E+02 0.13721956970E+02
 0.11511267122E+02 0.93503526857E+01 0.74564832115E+01 0.59637605629E+01 0.49154653059E+01
 0.42648600611E+01 0.38816277886E+01 0.35967092633E+01 0.33709986192E+01 0.32106634298E+01
 0.31116067880E+01 0.30652631534E+01 0.30643096223E+01 0.31065507886E+01 0.31963217179E+01
 0.33432104496E+01 0.35580906265E+01 0.38469586734E+01 0.42042782769E+01 0.46748964000E+01
 0.54516787914E+01 0.66799978881E+01 0.83919586448E+01 0.10493275500E+02 0.12773707465E+02
 0.99575036708E+01 0.11154482929E+02 0.11959976716E+02 0.12231462682E+02 0.11923452474E+02
 0.11096798717E+02 0.98987184333E+01 0.85220820512E+01 0.71591446510E+01 0.59637605629E+01
 0.50287414365E+01 0.43768512152E+01 0.39604308491E+01 0.36694001734E+01 0.34264816774E+01
 0.32374277303E+01 0.31048051157E+01 0.30237991858E+01 0.29862160883E+01 0.29845967793E+01
 0.30153276998E+01 0.30801957583E+01 0.31861529149E+01 0.33432104496E+01 0.35606030639E+01
 0.38418565947E+01 0.41801514656E+01 0.45837832571E+01 0.51740182370E+01 0.60486111496E+01
 0.72122255298E+01 0.85724176034E+01 0.68763392715E+01 0.75795312205E+01 0.81028777666E+01
 0.83406855316E+01 0.82421835571E+01 0.78251011799E+01 0.71683361533E+01 0.63876628663E+01
 0.56041270161E+01 0.49154653059E+01 0.43768512152E+01 0.39917526820E+01 0.37106456082E+01
 0.34702216530E+01 0.32702291679E+01 0.31172394329E+01 0.30115053919E+01 0.29484063903E+01
 0.29209583131E+01 0.29225065739E+01 0.29489613916E+01 0.30001729461E+01 0.30801957583E+01
 0.31963217179E+01 0.33569151432E+01 0.35682938810E+01 0.38312340820E+01 0.41381029329E+01
 0.44753587416E+01 0.48868177931E+01 0.54369379350E+01 0.61233015721E+01 0.52839012125E+01
 0.56173690381E+01 0.58837513379E+01 0.60215533528E+01 0.59920672119E+01 0.57932137116E+01
 0.54600177644E+01 0.50525701873E+01 0.46367923884E+01 0.42648600611E+01 0.39604308491E+01
 0.37106456082E+01 0.34868191929E+01 0.32923987296E+01 0.31342114332E+01 0.30151447019E+01
 0.29342434880E+01 0.28876759638E+01 0.28701792772E+01 0.28766012921E+01 0.29032672664E+01
 0.29489613916E+01 0.30153276998E+01 0.31065507886E+01 0.32282886898E+01 0.33859458352E+01
 0.35824961431E+01 0.38162592261E+01 0.40792701596E+01 0.43569656063E+01 0.46372244291E+01
 0.49447739671E+01 0.45893603863E+01 0.47284163562E+01 0.48288637755E+01 0.48714721857E+01
 0.48391677120E+01 0.47279577949E+01 0.45507582694E+01 0.43332103119E+01 0.41037161960E+01
 0.38816277886E+01 0.36694001734E+01 0.34702216530E+01 0.32923987296E+01 0.31419120006E+01
 0.30220371331E+01 0.29334447866E+01 0.28746908768E+01 0.28429482248E+01 0.28347863768E+01
 0.28468785008E+01 0.28766012921E+01 0.29225065739E+01 0.29845967793E+01 0.30643096223E+01
 0.31641465909E+01 0.32869319623E+01 0.34347354367E+01 0.36075643933E+01 0.38020694748E+01
 0.40106609513E+01 0.42214708106E+01 0.44194164018E+01 0.42020073708E+01 0.42914498791E+01
 0.43420085668E+01 0.43474506186E+01 0.43057393163E+01 0.42193782025E+01 0.40949562592E+01
 0.39421034952E+01 0.37721447259E+01 0.35967092633E+01 0.34264816774E+01 0.32702291679E+01
 0.31342114332E+01 0.30220371331E+01 0.29349534955E+01 0.28724555807E+01 0.28330219323E+01
 0.28147685806E+01 0.28158793211E+01 0.28347863768E+01 0.28701792772E+01 0.29209583131E+01
 0.29862160883E+01 0.30652631534E+01 0.31576530454E+01 0.32631263185E+01 0.33813849657E+01
 0.35116378290E+01 0.36519392617E+01 0.37984687092E+01 0.39450159886E+01 0.40829701411E+01
 0.39610654309E+01 0.40035317439E+01 0.40195782061E+01 0.40051052030E+01 0.39582101515E+01
 0.38799233709E+01 0.37743964586E+01 0.36484988618E+01 0.35109242822E+01 0.33709986192E+01
 0.32374277303E+01 0.31172394329E+01 0.30151447019E+01 0.29334447866E+01 0.28724555807E+01
 0.28312659277E+01 0.28085606541E+01 0.28032532445E+01 0.28147685806E+01 0.28429482248E+01
 0.28876759638E+01 0.29484063903E+01 0.30237991858E+01 0.31116067880E+01 0.32088519459E+01
 0.33122102799E+01 0.34184317569E+01 0.35246221982E+01 0.36282600154E+01 0.37269247105E+01
 0.38178356469E+01 0.38974065094E+01 0.38799864502E+01 0.38707391095E+01 0.38428224153E+01
 0.37959232231E+01 0.37301310099E+01 0.36465799240E+01 0.35479302560E+01 0.34384968296E+01
 0.33239529530E+01 0.32106634298E+01 0.31048051157E+01 0.30115053919E+01 0.29342434880E+01
 0.28746908768E+01 0.28330219323E+01 0.28085606541E+01 0.28005180869E+01 0.28085606541E+01
 0.28330219323E+01 0.28746908768E+01 0.29342434880E+01 0.30115053919E+01 0.31048051157E+01
 0.32106634298E+01 0.33239529530E+01 0.34384968296E+01 0.35479302560E+01 0.36465799240E+01
 0.37301310099E+01 0.37959232231E+01 0.38428224153E+01 0.38707391095E+01 0.39610654309E+01
 0.38974065094E+01 0.38178356469E+01 0.37269247105E+01 0.36282600154E+01 0.35246221982E+01
 0.34184317569E+01 0.33122102799E+01 0.32088519459E+01 0.31116067880E+01 0.30237991858E+01
 0.29484063903E+01 0.28876759638E+01 0.28429482248E+01 0.28147685806E+01 0.28032532445E+01
 0.28085606541E+01 0.28312659277E+01 0.28724555807E+01 0.29334447866E+01 0.30151447019E+01
 0.31172394329E+01 0.32374277303E+01 0.33709986192E+01 0.35109242822E+01 0.36484988618E+01
 0.37743964586E+01 0.38799233709E+01 0.39582101515E+01 0.40051052030E+01 0.40195782061E+01
 0.40035317439E+01 0.42020073708E+01 0.40829701411E+01 0.39450159886E+01 0.37984687092E+01
 0.36519392617E+01 0.35116378290E+01 0.33813849657E+01 0.32631263185E+01 0.31576530454E+01
 0.30652631534E+01 0.29862160883E+01 0.29209583131E+01 0.28701792772E+01 0.28347863768E+01
 0.28158793211E+01 0.28147685806E+01 0.28330219323E+01 0.28724555807E+01 0.29349534955E+01
 0.30220371331E+01 0.31342114332E+01 0.32702291679E+01 0.34264816774E+01 0.35967092633E+01
 0.37721447259E+01 0.39421034952E+01 0.40949562592E+01 0.42193782025E+01 0.43057393163E+01
 0.43474506186E+01 0.43420085668E+01 0.42914498791E+01 0.45893603863E+01 0.44194164018E+01
 0.42214708106E+01 0.40106609513E+01 0.38020694748E+01 0.36075643933E+01 0.34347354367E+01
 0.32869319623E+01 0.31641465909E+01 0.30643096223E+01 0.29845967793E+01 0.29225065739E+01
 0.28766012921E+01 0.28468785008E+01 0.28347863768E+01 0.28429482248E+01 0.28746908768E+01
 0.29334447866E+01 0.30220371331E+01 0.31419120006E+01 0.32923987296E+01 0.34702216530E+01
 0.36694001734E+01 0.38816277886E+01 0.41037161960E+01 0.43332103119E+01 0.45507582694E+01
 0.47279577949E+01 0.48391677120E+01 0.48714721857E+01 0.48288637755E+01 0.47284163562E+01
 0.52839012125E+01 0.49447739671E+01 0.46372244291E+01 0.43569656063E+01 0.40792701596E+01
 0.38162592261E+01 0.35824961431E+01 0.33859458352E+01 0.32282886898E+01 0.31065507886E+01
 0.30153276998E+01 0.29489613916E+01 0.29032672664E+01 0.28766012921E+01 0.28701792772E+01
 0.28876759638E+01 0.29342434880E+01 0.30151447019E+01 0.31342114332E+01 0.32923987296E+01
 0.34868191929E+01 0.37106456082E+01 0.39604308491E+01 0.42648600611E+01 0.46367923884E+01
 0.50525701873E+01 0.54600177644E+01 0.57932137116E+01 0.59920672119E+01 0.60215533528E+01
 0.58837513379E+01 0.56173690381E+01 0.68763392715E+01 0.61233015721E+01 0.54369379350E+01
 0.48868177931E+01 0.44753587416E+01 0.41381029329E+01 0.38312340820E+01 0.35682938810E+01
 0.33569151432E+01 0.31963217179E+01 0.30801957583E+01 0.30001729461E+01 0.29489613916E+01
 0.29225065739E+01 0.29209583131E+01 0.29484063903E+01 0.30115053919E+01 0.31172394329E+01
 0.32702291679E+01 0.34702216530E+01 0.37106456082E+01 0.39917526820E+01 0.43768512152E+01
 0.49154653059E+01 0.56041270161E+01 0.63876628663E+01 0.71683361533E+01 0.78251011799E+01
 0.82421835571E+01 0.83406855316E+01 0.81028777666E+01 0.75795312205E+01 0.99575036708E+01
 0.85724176034E+01 0.72122255298E+01 0.60486111496E+01 0.51740182370E+01 0.45837832571E+01
 0.41801514656E+01 0.38418565947E+01 0.35606030639E+01 0.33432104496E+01 0.31861529149E+01
 0.30801957583E+01 0.30153276998E+01 0.29845967793E+01 0.29862160883E+01 0.30237991858E+01
 0.31048051157E+01 0.32374277303E+01 0.34264816774E+01 0.36694001734E+01 0.39604308491E+01
 0.43768512152E+01 0.50287414365E+01 0.59637605629E+01 0.71591446510E+01 0.85220820512E+01
 0.98987184333E+01 0.11096798717E+02 0.11923452474E+02 0.12231462682E+02 0.11959976716E+02
 0.11154482929E+02 0.14941701142E+02 0.12773707465E+02 0.10493275500E+02 0.83919586448E+01
 0.66799978881E+01 0.54516787914E+01 0.46748964000E+01 0.42042782769E+01 0.38469586734E+01
 0.35580906265E+01 0.33432104496E+01 0.31963217179E+01 0.31065507886E+01 0.30643096223E+01
 0.30652631534E+01 0.31116067880E+01 0.32106634298E+01 0.33709986192E+01 0.35967092633E+01
 0.38816277886E+01 0.42648600611E+01 0.49154653059E+01 0.59637605629E+01 0.74564832115E+01
 0.93503526857E+01 0.11511267122E+02 0.13721956970E+02 0.15706252905E+02 0.17175149885E+02
 0.17888979086E+02 0.17718169855E+02 0.16680757942E+02 0.22004035948E+02 0.18986547419E+02
 0.15620779050E+02 0.12325882861E+02 0.94458625992E+01 0.71990853914E+01 0.56538864314E+01
 0.47281181441E+01 0.42121881902E+01 0.38469586734E+01 0.35606030639E+01 0.33569151432E+01
 0.32282886898E+01 0.31641465909E+01 0.31576530454E+01 0.32088519459E+01 0.33239529530E+01
 0.35109242822E+01 0.37721447259E+01 0.41037161960E+01 0.46367923884E+01 0.56041270161E+01
 0.71591446510E+01 0.93503526857E+01 0.12114745033E+02 0.15276127874E+02 0.18550418830E+02
 0.21569265192E+02 0.23932305664E+02 0.25285277267E+02 0.25403877704E+02 0.24253890938E+02
 0.31073882800E+02 0.27224975864E+02 0.22700154937E+02 0.18048127213E+02 0.13753381817E+02
 0.10170884967E+02 0.74910113841E+01 0.57278672402E+01 0.47281181441E+01 0.42042782769E+01
 0.38418565947E+01 0.35682938810E+01 0.33859458352E+01 0.32869319623E+01 0.32631263185E+01
 0.33122102799E+01 0.34384968296E+01 0.36484988618E+01 0.39421034952E+01 0.43332103119E+01
 0.50525701873E+01 0.63876628663E+01 0.85220820512E+01 0.11511267122E+02 0.15276127874E+02
 0.19601220749E+02 0.24137026062E+02 0.28420248256E+02 0.31928909340E+02 0.34174866197E+02
 0.34812952685E+02 0.33729276389E+02 0.41844564371E+02 0.37266062810E+02 0.31600498728E+02
 0.25526208878E+02 0.19671327599E+02 0.14531798634E+02 0.10428682827E+02 0.74910113841E+01
 0.56538864314E+01 0.46748964000E+01 0.41801514656E+01 0.38312340820E+01 0.35824961431E+01
 0.34347354367E+01 0.33813849657E+01 0.34184317569E+01 0.35479302560E+01 0.37743964586E+01
 0.40949562592E+01 0.45507582694E+01 0.54600177644E+01 0.71683361533E+01 0.98987184333E+01
 0.13721956970E+02 0.18550418830E+02 0.24137026062E+02 0.30074325381E+02 0.35808628012E+02
 0.40693171477E+02 0.44091274372E+02 0.45511165012E+02 0.44727979753E+02 0.53763940402E+02
 0.48649348691E+02 0.41960078431E+02 0.34501443061E+02 0.27048472716E+02 0.20240858354E+02
 0.14531798634E+02 0.10170884967E+02 0.71990853914E+01 0.54516787914E+01 0.45837832571E+01
 0.41381029329E+01 0.38162592261E+01 0.36075643933E+01 0.35116378290E+01 0.35246221982E+01
 0.36465799240E+01 0.38799233709E+01 0.42193782025E+01 0.47279577949E+01 0.57932137116E+01
 0.78251011799E+01 0.11096798717E+02 0.15706252905E+02 0.21569265192E+02 0.28420248256E+02
 0.35808628012E+02 0.43104369738E+02 0.49543316300E+02 0.54334347354E+02 0.56816947879E+02
 0.56620712113E+02 0.66009822699E+02 0.60655627587E+02 0.53174674681E+02 0.44487158492E+02
 0.35515858077E+02 0.27048472716E+02 0.19671327599E+02 0.13753381817E+02 0.94458625992E+01
 0.66799978881E+01 0.51740182370E+01 0.44753587416E+01 0.40792701596E+01 0.38020694748E+01
 0.36519392617E+01 0.36282600154E+01 0.37301310099E+01 0.39582101515E+01 0.43057393163E+01
 0.48391677120E+01 0.59920672119E+01 0.82421835571E+01 0.11923452474E+02 0.17175149885E+02
 0.23932305664E+02 0.31928909340E+02 0.40693171477E+02 0.49543316300E+02 0.57619138570E+02
 0.63983834401E+02 0.67796603560E+02 0.68509023252E+02 0.77498097074E+02 0.72298919847E+02
 0.64385000204E+02 0.54760919965E+02 0.44487158492E+02 0.34501443061E+02 0.25526208878E+02
 0.18048127213E+02 0.12325882861E+02 0.83919586448E+01 0.60486111496E+01 0.48868177931E+01
 0.43569656063E+01 0.40106609513E+01 0.37984687092E+01 0.37269247105E+01 0.37959232231E+01
 0.40051052030E+01 0.43474506186E+01 0.48714721857E+01 0.60215533528E+01 0.83406855316E+01
 0.12231462682E+02 0.17888979086E+02 0.25285277267E+02 0.34174866197E+02 0.44091274372E+02
 0.54334347354E+02 0.63983834401E+02 0.71985435116E+02 0.77325868610E+02 0.79258629752E+02
 0.86982190782E+02 0.82390247837E+02 0.74512726545E+02 0.64385000204E+02 0.53174674681E+02
 0.41960078431E+02 0.31600498728E+02 0.22700154937E+02 0.15620779050E+02 0.10493275500E+02
 0.72122255298E+01 0.54369379350E+01 0.46372244291E+01 0.42214708106E+01 0.39450159886E+01
 0.38178356469E+01 0.38428224153E+01 0.40195782061E+01 0.43420085668E+01 0.48288637755E+01
 0.58837513379E+01 0.81028777666E+01 0.11959976716E+02 0.17718169855E+02 0.25403877704E+02
 0.34812952685E+02 0.45511165012E+02 0.56816947879E+02 0.67796603560E+02 0.77325868610E+02
 0.84252081099E+02 0.87634497939E+02 0.93263663802E+02 0.89709909355E+02 0.82390247837E+02
 0.72298919847E+02 0.60655627587E+02 0.48649348691E+02 0.37266062810E+02 0.27224975864E+02
 0.18986547419E+02 0.12773707465E+02 0.85724176034E+01 0.61233015721E+01 0.49447739671E+01
 0.44194164018E+01 0.40829701411E+01 0.38974065094E+01 0.38707391095E+01 0.40035317439E+01
 0.42914498791E+01 0.47284163562E+01 0.56173690381E+01 0.75795312205E+01 0.11154482929E+02
 0.16680757942E+02 0.24253890938E+02 0.33729276389E+02 0.44727979753E+02 0.56620712113E+02
 0.68509023252E+02 0.79258629752E+02 0.87634497939E+02 0.92536053558E+02 0.93263663802E+02
 0.92536053558E+02 0.87634497939E+02 0.79258629752E+02 0.68509023252E+02 0.56620712113E+02
 0.44727979753E+02 0.33729276389E+02 0.24253890938E+02 0.16680757942E+02 0.11154482929E+02
 0.75795312205E+01 0.56173690381E+01 0.47284163562E+01 0.42914498791E+01 0.40035317439E+01
 0.38707391095E+01 0.38974065094E+01 0.40829701411E+01 0.44194164018E+01 0.49447739671E+01
 0.61233015721E+01 0.85724176034E+01 0.12773707465E+02 0.18986547419E+02 0.27224975864E+02
 0.37266062810E+02 0.48649348691E+02 0.60655627587E+02 0.72298919847E+02 0.82390247837E+02
 0.89709909355E+02 0.92536053558E+02 0.93263663609E+02 0.89709908981E+02 0.82390247298E+02
 0.72298919169E+02 0.60655626807E+02 0.48649347858E+02 0.37266061983E+02 0.27224975105E+02
 0.18986546783E+02 0.12773706989E+02 0.85724173019E+01 0.61233014293E+01 0.49447739439E+01
 0.44194164453E+01 0.40829701983E+01 0.38974065415E+01 0.38707391025E+01 0.40035317125E+01
 0.42914498629E+01 0.47284164085E+01 0.56173692120E+01 0.75795315537E+01 0.11154483434E+02
 0.16680758600E+02 0.24253891705E+02 0.33729277200E+02 0.44727980541E+02 0.56620712813E+02
 0.68509023813E+02 0.79258630139E+02 0.87634498135E+02 0.87634497939E+02 0.89709908981E+02
 0.87634497609E+02 0.81712364389E+02 0.72769968706E+02 0.61938000330E+02 0.50395612233E+02
 0.39172012893E+02 0.29050660717E+02 0.20557824656E+02 0.13981754330E+02 0.93793315789E+01
 0.65679064889E+01 0.51356184119E+01 0.45064466970E+01 0.41343286871E+01 0.39038395155E+01
 0.38265136286E+01 0.39038394525E+01 0.41343286077E+01 0.45064466824E+01 0.51356185553E+01
 0.65679068713E+01 0.93793322474E+01 0.13981755285E+02 0.20557825851E+02 0.29050662065E+02
 0.39172014289E+02 0.50395613566E+02 0.61938001501E+02 0.72769969641E+02 0.81712365036E+02
 0.79258629752E+02 0.82390247298E+02 0.81712364389E+02 0.77325868239E+02 0.69856638483E+02
 0.60286875603E+02 0.49720675540E+02 0.39176259850E+02 0.29464159269E+02 0.21152510532E+02
 0.14577202648E+02 0.98513519939E+01 0.68601579164E+01 0.52641791611E+01 0.45465935291E+01
 0.41510471049E+01 0.38873879991E+01 0.37669594614E+01 0.37916129365E+01 0.39613423683E+01
 0.42720309574E+01 0.47295022899E+01 0.56789188607E+01 0.76973636379E+01 0.11254165483E+02
 0.16617965503E+02 0.23825983384E+02 0.32686726668E+02 0.42781502842E+02 0.53452696629E+02
 0.63805278218E+02 0.72769969439E+02 0.68509023252E+02 0.72298919169E+02 0.72769968706E+02
 0.69856638483E+02 0.63983834112E+02 0.55951452264E+02 0.46736369310E+02 0.37292785563E+02
 0.28415698866E+02 0.20684895757E+02 0.14461890903E+02 0.98981339171E+01 0.69332021957E+01
 0.52953637478E+01 0.45352887211E+01 0.41291700240E+01 0.38462094287E+01 0.36938208887E+01
 0.36734327416E+01 0.37850362062E+01 0.40291887826E+01 0.43975965393E+01 0.49923468695E+01
 0.62976800100E+01 0.88135735448E+01 0.12883977130E+02 0.18641915863E+02 0.25997768854E+02
 0.34642321048E+02 0.44044390809E+02 0.53452696433E+02 0.61938001109E+02 0.56620712113E+02
 0.60655626807E+02 0.61938000330E+02 0.60286875603E+02 0.55951452264E+02 0.49543316202E+02
 0.41881467420E+02 0.33814481084E+02 0.26082080494E+02 0.19244118090E+02 0.13663831154E+02
 0.95116425812E+01 0.67655977139E+01 0.52118343908E+01 0.44689212739E+01 0.40682716088E+01
 0.37800938928E+01 0.36086955697E+01 0.35542666747E+01 0.36155599216E+01 0.37948727783E+01
 0.40931121269E+01 0.45072359096E+01 0.52729959463E+01 0.68728551968E+01 0.97033394091E+01
 0.13986407028E+02 0.19736884507E+02 0.26757704049E+02 0.34642320879E+02 0.42781502478E+02
 0.50395613014E+02 0.44727979753E+02 0.48649347858E+02 0.50395612233E+02 0.49720675540E+02
 0.46736369310E+02 0.41881467420E+02 0.35808628144E+02 0.29236042248E+02 0.22818021652E+02
 0.17067063249E+02 0.12325959217E+02 0.87658100217E+01 0.63872400532E+01 0.50219452659E+01
 0.43511103598E+01 0.39717298951E+01 0.36910476532E+01 0.35135460700E+01 0.34375498015E+01
 0.34598208868E+01 0.35820980907E+01 0.38098033171E+01 0.41431756437E+01 0.46055315735E+01
 0.55128700700E+01 0.72788306620E+01 0.10194844131E+02 0.14375257039E+02 0.19736884385E+02
 0.25997768564E+02 0.32686726187E+02 0.39172013628E+02 0.33729276389E+02 0.37266061983E+02
 0.39172012893E+02 0.39176259850E+02 0.37292785563E+02 0.33814481084E+02 0.29236042248E+02
 0.24137026370E+02 0.19068672006E+02 0.14476595805E+02 0.10665860831E+02 0.77934153804E+01
 0.58688527747E+01 0.47572038758E+01 0.41938928470E+01 0.38463209276E+01 0.35834363180E+01
 0.34111371432E+01 0.33256299106E+01 0.33214959220E+01 0.33985757030E+01 0.35630468983E+01
 0.38224387413E+01 0.41755383146E+01 0.46773583381E+01 0.56512204926E+01 0.74249888935E+01
 0.10194844064E+02 0.13986406841E+02 0.18641915511E+02 0.23825982847E+02 0.29050661361E+02
 0.24253890938E+02 0.27224975105E+02 0.29050660717E+02 0.29464159269E+02 0.28415698866E+02
 0.26082080494E+02 0.22818021652E+02 0.19068672006E+02 0.15276128233E+02 0.11808473468E+02
 0.89220880026E+01 0.67497257830E+01 0.53000156819E+01 0.44610507720E+01 0.40133653182E+01
 0.37012725239E+01 0.34636272196E+01 0.33052059580E+01 0.32203154716E+01 0.32016858094E+01
 0.32468641809E+01 0.33605033001E+01 0.35521856889E+01 0.38299544395E+01 0.41910183661E+01
 0.47039441705E+01 0.56512204727E+01 0.72788305783E+01 0.97033392105E+01 0.12883976774E+02
 0.16617964975E+02 0.20557825172E+02 0.16680757942E+02 0.18986546783E+02 0.20557824656E+02
 0.21152510532E+02 0.20684895757E+02 0.19244118090E+02 0.17067063249E+02 0.14476595805E+02
 0.11808473468E+02 0.93503529697E+01 0.73050126876E+01 0.57757068301E+01 0.47640368749E+01
 0.41736342156E+01 0.38221646778E+01 0.35469993973E+01 0.33392013121E+01 0.32002824222E+01
 0.31233018295E+01 0.30998657478E+01 0.31255597240E+01 0.32026128541E+01 0.33394405711E+01
 0.35470004499E+01 0.38323379420E+01 0.41910183726E+01 0.46773583273E+01 0.55128700021E+01
 0.68728550258E+01 0.88135732340E+01 0.11254165021E+02 0.13981754694E+02 0.11154482929E+02
 0.12773706989E+02 0.13981754330E+02 0.14577202648E+02 0.14461890903E+02 0.13663831154E+02
 0.12325959217E+02 0.10665860831E+02 0.89220880026E+01 0.73050126876E+01 0.59637607048E+01
 0.49705779500E+01 0.43171308834E+01 0.39176414462E+01 0.36296716917E+01 0.33937560477E+01
 0.32179041706E+01 0.31011981386E+01 0.30363598576E+01 0.30148194228E+01 0.30309804478E+01
 0.30847492942E+01 0.31819711291E+01 0.33326476832E+01 0.35470004614E+01 0.38299544585E+01
 0.41755383212E+01 0.46055315342E+01 0.52729958229E+01 0.62976797728E+01 0.76973632789E+01
 0.93793317890E+01 0.75795312205E+01 0.85724173019E+01 0.93793315789E+01 0.98513519939E+01
 0.98981339171E+01 0.95116425812E+01 0.87658100217E+01 0.77934153804E+01 0.67497257830E+01
 0.57757068301E+01 0.49705779500E+01 0.43768512253E+01 0.39755532204E+01 0.36891090002E+01
 0.34462436183E+01 0.32504336834E+01 0.31065725321E+01 0.30124275570E+01 0.29612929240E+01
 0.29453743440E+01 0.29588548755E+01 0.29999959106E+01 0.30719291338E+01 0.31819711331E+01
 0.33394405857E+01 0.35521857117E+01 0.38224387577E+01 0.41431756288E+01 0.45072358350E+01
 0.49923467139E+01 0.56789186196E+01 0.65679065634E+01 0.56173690381E+01 0.61233014293E+01
 0.65679064889E+01 0.68601579164E+01 0.69332021957E+01 0.67655977139E+01 0.63872400532E+01
 0.58688527747E+01 0.53000156819E+01 0.47640368749E+01 0.43171308834E+01 0.39755532204E+01
 0.37106455448E+01 0.34782638254E+01 0.32803124617E+01 0.31237044400E+01 0.30102961983E+01
 0.29374710027E+01 0.28997592823E+01 0.28908825669E+01 0.29057076757E+01 0.29417550761E+01
 0.29999959054E+01 0.30847492910E+01 0.32026128587E+01 0.33605033125E+01 0.35630469101E+01
 0.38098033129E+01 0.40931120889E+01 0.43975964545E+01 0.47295021568E+01 0.51356183876E+01
 0.47284163562E+01 0.49447739439E+01 0.51356184119E+01 0.52641791611E+01 0.52953637478E+01
 0.52118343908E+01 0.50219452659E+01 0.47572038758E+01 0.44610507720E+01 0.41736342156E+01
 0.39176414462E+01 0.36891090002E+01 0.34782638254E+01 0.32923986527E+01 0.31378051823E+01
 0.30176577455E+01 0.29320276682E+01 0.28784895234E+01 0.28530958534E+01 0.28514616681E+01
 0.28697868824E+01 0.29057076676E+01 0.29588548606E+01 0.30309804311E+01 0.31255597107E+01
 0.32468641732E+01 0.33985756984E+01 0.35820980824E+01 0.37948727583E+01 0.40291887452E+01
 0.42720309034E+01 0.45064466209E+01 0.42914498791E+01 0.44194164453E+01 0.45064466970E+01
 0.45465935291E+01 0.45352887211E+01 0.44689212739E+01 0.43511103598E+01 0.41938928470E+01
 0.40133653182E+01 0.38221646778E+01 0.36296716917E+01 0.34462436183E+01 0.32803124617E+01
 0.31378051823E+01 0.30220370760E+01 0.29339632164E+01 0.28727229563E+01 0.28363204119E+01
 0.28222617164E+01 0.28280394796E+01 0.28514616643E+01 0.28908825548E+01 0.29453743231E+01
 0.30148193959E+01 0.30998657189E+01 0.32016857819E+01 0.33214958974E+01 0.34598208648E+01
 0.36155599014E+01 0.37850361879E+01 0.39613423548E+01 0.41343286050E+01 0.40035317439E+01
 0.40829701983E+01 0.41343286871E+01 0.41510471049E+01 0.41291700240E+01 0.40682716088E+01
 0.39717298951E+01 0.38463209276E+01 0.37012725239E+01 0.35469993973E+01 0.33937560477E+01
 0.32504336834E+01 0.31237044400E+01 0.30176577455E+01 0.29339632164E+01 0.28724555492E+01
 0.28319250172E+01 0.28108616645E+01 0.28079544905E+01 0.28222617209E+01 0.28530958555E+01
 0.28997592771E+01 0.29612929092E+01 0.30363598331E+01 0.31233017970E+01 0.32203154339E+01
 0.33256298707E+01 0.34375497628E+01 0.35542666408E+01 0.36734327168E+01 0.37916129256E+01
 0.39038394605E+01 0.38707391095E+01 0.38974065415E+01 0.39038395155E+01 0.38873879991E+01
 0.38462094287E+01 0.37800938928E+01 0.36910476532E+01 0.35834363180E+01 0.34636272196E+01
 0.33392013121E+01 0.32179041706E+01 0.31065725321E+01 0.30102961983E+01 0.29320276682E+01
 0.28727229563E+01 0.28319250172E+01 0.28085606417E+01 0.28016728617E+01 0.28108616763E+01
 0.28363204307E+01 0.28784895435E+01 0.29374710183E+01 0.30124275631E+01 0.31011981318E+01
 0.32002824007E+01 0.33052059223E+01 0.34111370958E+01 0.35135460155E+01 0.36086955142E+01
 0.36938208393E+01 0.37669594253E+01 0.38265136119E+01 0.38974065094E+01 0.38707391025E+01
 0.38265136286E+01 0.37669594614E+01 0.36938208887E+01 0.36086955697E+01 0.35135460700E+01
 0.34111371432E+01 0.33052059580E+01 0.32002824222E+01 0.31011981386E+01 0.30124275570E+01
 0.29374710027E+01 0.28784895234E+01 0.28363204119E+01 0.28108616645E+01 0.28016728617E+01
 0.28085606563E+01 0.28319250467E+01 0.28727229979E+01 0.29320277163E+01 0.30102962453E+01
 0.31065725695E+01 0.32179041907E+01 0.33392013091E+01 0.34636271911E+01 0.35834362656E+01
 0.36910475822E+01 0.37800938115E+01 0.38462093469E+01 0.38873879266E+01 0.39038394605E+01
 0.40829701411E+01 0.40035317125E+01 0.39038394525E+01 0.37916129365E+01 0.36734327416E+01
 0.35542666747E+01 0.34375498015E+01 0.33256299106E+01 0.32203154716E+01 0.31233018295E+01
 0.30363598576E+01 0.29612929240E+01 0.28997592823E+01 0.28530958534E+01 0.28222617164E+01
 0.28079544905E+01 0.28108616763E+01 0.28319250467E+01 0.28724555990E+01 0.29339632845E+01
 0.30176578249E+01 0.31237045197E+01 0.32504337502E+01 0.33937560892E+01 0.35469994044E+01
 0.37012724927E+01 0.38463208605E+01 0.39717298004E+01 0.40682714986E+01 0.41291699118E+01