    1    1    1    2
  0.1127263E+02  0.2446522E-09  0.2446522E-09  0.2446522E-09  0.5000000E-15
  1.000000000000000E-004
  CAR 
 Fe BCC                                  
      8     26     12
 
  0.6250000E-01  0.6250000E-01  0.6250000E-01  0.1562500E-01
    1       -1.602630     -1.476104   1.000000   1.000000
    2        3.354445      5.252183   1.000000   1.000000
    3        3.354445      5.252183   1.000000   1.000000
    4        4.170816      6.166734   1.000000   0.003800
    5        4.771520      7.437834   1.000000   0.000000
    6        4.771520      7.437834   1.003395   0.000000
    7       27.401628     27.560225   0.000000   0.000000
    8       27.401628     27.560225   0.000000   0.000000
    9       31.448052     31.603185   0.000000   0.000000
   10       31.916932     32.281339   0.000000   0.000000
   11       37.043831     37.320194   0.000000   0.000000
   12       37.043831     37.320194   0.000000   0.000000
 
  0.1875000E+00  0.6250000E-01  0.6250000E-01  0.4687500E-01
    1       -0.000810      0.218959   1.000000   1.000000
    2        2.938154      4.747953   1.000000   1.000000
    3        3.153314      4.921857   1.000000   1.000000
    4        4.708962      7.246550   1.000000  -0.002669
    5        4.897417      7.290193   1.001016   0.000000
    6        5.210156      7.599493   0.880320   0.000000
    7       21.972287     22.543314   0.000000   0.000000
    8       25.051637     25.334490   0.000000   0.000000
    9       27.523548     28.240245   0.000000   0.000000
   10       32.276691     32.188303   0.000000   0.000000
   11       36.516944     37.071006   0.000000   0.000000
   12       37.674723     37.896446   0.000000   0.000000
 
  0.3125000E+00  0.6250000E-01  0.6250000E-01  0.4687500E-01
    1        1.120573      2.000205   1.000000   1.000000
    2        2.582186      4.315070   1.000000   1.000000
    3        3.949950      5.074567   1.000000   1.001624
    4        4.854521      7.388400   1.000000   0.000000
    5        4.997424      7.743559   1.033948   0.000000
    6        6.659848      8.576231   0.008687   0.000000
    7       16.485817     17.422742   0.000000   0.000000
    8       23.331963     23.601718   0.000000   0.000000
    9       25.149817     25.773347   0.000000   0.000000
   10       31.775751     31.941074   0.000000   0.000000
   11       35.820101     36.357995   0.000000   0.000000
   12       41.029855     41.165384   0.000000   0.000000
 
  0.4375000E+00  0.6250000E-01  0.6250000E-01  0.2343750E-01
    1        1.165417      2.444138   1.000000   1.000000
    2        2.445505      4.149559   1.000000   1.000000
    3        4.920121      5.879875   1.000000   0.985959
    4        4.960110      7.463831   1.000000   0.000000
    5        5.038389      7.806076   1.080398   0.000000
    6        8.052328      9.461423  -0.004857   0.000000
    7       13.379828     14.706899   0.000000   0.000000
    8       22.699513     22.946957   0.000000   0.000000
    9       24.264657     24.839050   0.000000   0.000000
   10       31.550908     31.793377   0.000000   0.000000
   11       35.721329     36.284067   0.000000   0.000000
   12       40.905766     40.894641   0.000000   0.000000
 
 -0.6250000E-01  0.6250000E-01  0.6250000E-01  0.1171875E-01
    1       -2.224478     -2.105887   1.000000   1.000000
    2        3.561692      5.497101   1.000000   1.000000
    3        3.561693      5.497101   1.000000   1.000000
    4        3.651118      5.608540   1.000000   0.607741
    5        4.694229      7.349741   1.000000   0.000000
    6        4.897387      7.609965   1.000000   0.000000
    7       29.309067     29.178512   0.000000   0.000000
    8       30.667361     30.522110   0.000000   0.000000
    9       30.667362     30.522111   0.000000   0.000000
   10       33.891961     34.238317   0.000000   0.000000
   11       36.114811     36.868888   0.000000   0.000000
   12       36.114812     36.868893   0.000000   0.000000
 
  0.1875000E+00  0.1875000E+00  0.6250000E-01  0.4687500E-01
    1        1.475479      2.011804   1.000000   1.000000
    2        2.652359      4.346286   1.000000   1.000000
    3        2.860804      4.458917   1.000000   1.000005
    4        4.791878      7.369374   1.000000   0.000000
    5        5.031184      7.738315   1.000830   0.000000
    6        6.871189      8.776523  -0.010521   0.000000
    7       19.434386     20.112252   0.000000   0.000000
    8       20.279860     20.897143   0.000000   0.000000
    9       24.232074     24.799496   0.000000   0.000000
   10       34.228943     34.134261   0.000000   0.000000
   11       37.969553     38.249748   0.000000   0.000000
   12       40.405962     40.680446   0.000000   0.000000
 
  0.3125000E+00  0.1875000E+00  0.6250000E-01  0.9375000E-01
    1        1.801659      3.079859   1.000000   1.000000
    2        2.484044      4.106224   1.000000   1.000000
    3        3.511469      4.737478   1.000000   1.000156
    4        4.935509      7.515415   1.000000   0.000000
    5        5.128889      7.811976   1.010017   0.000000
    6        9.358944     10.760147  -0.003483   0.000000
    7       14.788328     15.803112   0.000000   0.000000
    8       18.680419     19.316829   0.000000   0.000000
    9       22.926996     23.450603   0.000000   0.000000
   10       34.608391     34.653666   0.000000   0.000000
   11       38.992317     39.075172   0.000000   0.000000
   12       41.046436     41.438136   0.000000   0.000000
 
 -0.1875000E+00  0.1875000E+00  0.6250000E-01  0.4687500E-01
    1       -1.023516     -0.877258   1.000000   1.000000
    2        3.289788      5.167221   1.000000   1.000000
    3        3.486998      5.370041   1.000000   1.000000
    4        4.277822      6.295645   1.000000  -0.010283
    5        4.449332      6.985536   1.000000   0.000000
    6        4.999534      7.721191   1.010720   0.000000
    7       24.858439     25.244526   0.000000   0.000000
    8       28.245144     28.333686   0.000000   0.000000
    9       29.161122     29.483683   0.000000   0.000000
   10       33.274074     33.647961   0.000000   0.000000
   11       33.454831     33.998402   0.000000   0.000000
   12       35.025560     35.413602   0.000000   0.000000
 
  0.3125000E+00  0.3125000E+00  0.6250000E-01  0.1562500E-01
    1        2.122435      3.631087   1.000000   1.000000
    2        2.853025      4.258695   1.000000   1.000000
    3        2.853026      4.258696   1.000000   1.000006
    4        5.076217      7.696269   1.000000   0.000000
    5        5.076217      7.696269   1.000000   0.000000
    6       12.912127     13.935562   0.000000   0.000000
    7       12.912129     13.935562   0.000000   0.000000
    8       15.484898     16.370563   0.000000   0.000000
    9       22.449873     22.992955   0.000000   0.000000
   10       37.072525     37.075018   0.000000   0.000000
   11       37.072526     37.075021   0.000000   0.000000
   12       44.359387     45.038070   0.000000   0.000000
 
 -0.3125000E+00  0.3125000E+00  0.6250000E-01  0.4687500E-01
    1        0.609456      1.074319   1.000000   1.000000
    2        2.885983      4.684913   1.000000   1.000000
    3        3.551393      5.107069   1.000000   1.000113
    4        4.659333      7.056459   1.000000   0.000000
    5        5.188079      7.446070   1.017734   0.000000
    6        5.307999      7.846354   0.705304   0.000000
    7       19.061184     19.837228   0.000000   0.000000
    8       25.813500     25.909823   0.000000   0.000000
    9       27.042207     27.621572   0.000000   0.000000
   10       31.553124     31.993019   0.000000   0.000000
   11       33.486426     33.974051   0.000000   0.000000
   12       36.390960     36.639645   0.000000   0.000000
 
 -0.1875000E+00  0.3125000E+00  0.6250000E-01  0.4687500E-01
    1        0.430883      0.718656   1.000000   1.000000
    2        3.069248      4.941356   1.000000   1.000000
    3        3.279659      5.057808   1.000000   1.001618
    4        4.322442      6.702786   1.000000  -0.001461
    5        5.028048      7.175860   1.002049   0.000000
    6        5.391338      7.963029   0.753979   0.000000
    7       22.040872     22.619074   0.000000   0.000000
    8       23.062176     23.606123   0.000000   0.000000
    9       29.586962     29.781799   0.000000   0.000000
   10       29.892445     30.364584   0.000000   0.000000
   11       33.669462     34.036614   0.000000   0.000000
   12       38.345759     38.652462   0.000000   0.000000
 
 -0.4375000E+00  0.4375000E+00  0.6250000E-01  0.4687500E-01
    1        1.043562      2.235166   1.000000   1.000000
    2        2.612287      4.361536   1.000000   1.000000
    3        4.340983      5.735755   1.000000   1.000896
    4        4.830883      7.277671   1.000000   0.000000
    5        6.137245      8.240315   0.459822   0.000000
    6        6.559069      8.393964   0.001766   0.000000
    7       14.287224     15.486737   0.000000   0.000000
    8       24.422767     24.488829   0.000000   0.000000
    9       25.407940     25.963886   0.000000   0.000000
   10       30.832762     31.307843   0.000000   0.000000
   11       33.766670     34.331287   0.000000   0.000000
   12       38.062114     38.147653   0.000000   0.000000
 
 -0.3125000E+00  0.4375000E+00  0.6250000E-01  0.9375000E-01
    1        1.467432      2.414533   1.000000   1.000000
    2        2.759688      4.492523   1.000000   1.000000
    3        3.348678      4.911137   1.000000   1.002901
    4        4.629875      6.967331   1.000000   0.000000
    5        5.427875      7.854139   1.024161   0.000000
    6        7.156684      9.001989  -0.036191   0.000000
    7       16.862987     17.757161   0.000000   0.000000
    8       20.800790     21.381654   0.000000   0.000000
    9       27.416566     27.736311   0.000000   0.000000
   10       30.624892     30.977830   0.000000   0.000000
   11       34.289686     34.579245   0.000000   0.000000
   12       38.896642     39.300707   0.000000   0.000000
 
 -0.4375000E+00 -0.4375000E+00  0.6250000E-01  0.4687500E-01
    1        1.492015      2.866042   1.000000   1.000000
    2        2.750665      4.481861   1.000000   1.000000
    3        3.523998      5.020690   1.000000   1.003246
    4        4.737381      7.129135   1.000000   0.000000
    5        5.784473      8.092359   0.863390   0.000000
    6        9.177156     10.423651  -0.001797   0.000000
    7       13.478413     14.739024   0.000000   0.000000
    8       20.097129     20.666176   0.000000   0.000000
    9       26.563189     26.850028   0.000000   0.000000
   10       30.979581     31.419582   0.000000   0.000000
   11       35.235308     35.307317   0.000000   0.000000
   12       38.203452     38.702346   0.000000   0.000000
 
 -0.3125000E+00 -0.4375000E+00  0.6250000E-01  0.4687500E-01
    1        2.195427      3.592889   1.000000   1.000000
    2        2.451734      4.095199   1.000000   1.000000
    3        3.003502      4.610177   1.000000   1.005028
    4        4.935542      7.269167   1.000000   0.000000
    5        5.400509      7.768663   1.041087   0.000000
    6       10.440497     11.730771  -0.000568   0.000000
    7       14.890349     15.858426   0.000000   0.000000
    8       16.291243     17.094510   0.000000   0.000000
    9       27.840882     28.292468   0.000000   0.000000
   10       31.002191     31.170175   0.000000   0.000000
   11       33.224434     33.405942   0.000000   0.000000
   12       40.535479     41.366925   0.000000   0.000000
 
  0.1875000E+00  0.1875000E+00  0.1875000E+00  0.1562500E-01
    1        2.468672      3.523606   1.000000   1.000000
    2        2.468672      4.033296   1.000000   1.000000
    3        2.653717      4.033296   1.000000   1.000007
    4        5.014065      7.735533   1.000000   0.000000
    5        5.014065      7.735533   1.000000   0.000000
    6        9.347989     10.849223  -0.004412   0.000000
    7       17.771269     18.484578   0.000000   0.000000
    8       17.771269     18.484578   0.000000   0.000000
    9       19.191083     19.855503   0.000000   0.000000
   10       38.948976     38.646664   0.000000   0.000000
   11       41.698960     41.835019   0.000000   0.000000
   12       41.698960     41.835019   0.000000   0.000000
 
  0.3125000E+00  0.1875000E+00  0.1875000E+00  0.2343750E-01
    1        2.353695      3.730348   1.000000   1.000000
    2        2.430476      3.945758   1.000000   1.000000
    3        3.102805      4.380516   1.000000   1.000010
    4        5.048489      7.769649   1.000000   0.000000
    5        5.063585      7.839350   1.000000   0.000000
    6       12.193343     13.221877   0.000000   0.000000
    7       14.072746     15.088526   0.000000   0.000000
    8       17.199436     17.919751   0.000000   0.000000
    9       18.244643     18.899551   0.000000   0.000000
   10       40.019967     39.886146   0.000000   0.000000
   11       43.459398     43.472741   0.000000   0.000000
   12       43.924989     44.231752   0.000000   0.000000
 
 -0.1875000E+00  0.1875000E+00  0.1875000E+00  0.1171875E-01
    1        0.024885      0.240232   1.000000   1.000000
    2        3.649516      5.598362   1.000000   1.000000
    3        3.716871      5.598363   1.000000   0.992155
    4        3.716872      6.011114   1.000000   0.005825
    5        4.291534      6.321285   1.000000   0.000000
    6        5.372472      8.045796   0.898944   0.000000
    7       24.954409     25.258523   0.000000   0.000000
    8       26.021339     26.574124   0.000000   0.000000
    9       26.021341     26.574126   0.000000   0.000000
   10       27.970618     28.334181   0.000000   0.000000
   11       37.490344     37.755996   0.000000   0.000000
   12       37.490346     37.755999   0.000000   0.000000
 
 -0.3125000E+00  0.3125000E+00  0.1875000E+00  0.4687500E-01
    1        1.323564      1.944113   1.000000   1.000000
    2        2.870113      4.850926   1.000000   1.000000
    3        3.575403      5.425933   1.000000   0.983429
    4        4.250185      6.304261   1.000000   0.000000
    5        5.189330      7.310965   1.035347   0.000000
    6        6.251318      8.491520   0.103879   0.000000
    7       19.921075     20.647571   0.000000   0.000000
    8       23.391789     23.990701   0.000000   0.000000
    9       24.531929     24.924961   0.000000   0.000000
   10       28.559886     28.938315   0.000000   0.000000
   11       36.551355     36.966197   0.000000   0.000000
   12       38.313980     38.675496   0.000000   0.000000
 
 -0.4375000E+00  0.4375000E+00  0.1875000E+00  0.4687500E-01
    1        1.591049      2.980037   1.000000   1.000000
    2        2.803975      4.454601   1.000000   1.000000
    3        3.373723      5.189515   1.000000   0.996320
    4        4.471391      6.652966   1.000000   0.000000
    5        6.054159      8.299024   0.314966   0.000000
    6        8.762315     10.103643  -0.011151   0.000000
    7       14.800808     15.849970   0.000000   0.000000
    8       21.755262     22.305524   0.000000   0.000000
    9       23.681570     24.097591   0.000000   0.000000
   10       31.078780     31.325317   0.000000   0.000000
   11       35.611200     36.047578   0.000000   0.000000
   12       36.319818     36.891901   0.000000   0.000000
 
 -0.3125000E+00  0.4375000E+00  0.1875000E+00  0.4687500E-01
    1        1.919645      3.134450   1.000000   1.000000
    2        2.230870      4.112520   1.000000   1.000000
    3        3.657430      5.501692   1.000000   0.899215
    4        4.654382      6.713559   1.000000   0.000000
    5        5.622234      7.836123   1.062933   0.000000
    6        8.649606     10.132632  -0.014764   0.000000
    7       17.747644     18.567013   0.000000   0.000000
    8       18.393831     19.059994   0.000000   0.000000
    9       25.976419     26.389100   0.000000   0.000000
   10       27.541613     27.927994   0.000000   0.000000
   11       35.267863     35.737456   0.000000   0.000000
   12       38.280902     38.959945   0.000000   0.000000
 
 -0.4375000E+00 -0.4375000E+00  0.1875000E+00  0.4687500E-01
    1        1.861730      3.538995   1.000000   1.000000
    2        2.244187      3.914717   1.000000   1.000000
    3        3.460118      5.232174   1.000000   0.938594
    4        4.971410      7.088107   1.000000   0.000000
    5        5.857500      8.079911   0.670038   0.000000
    6       11.676102     12.686721   0.000000   0.000000
    7       13.937097     14.971040   0.000000   0.000000
    8       17.385816     18.074440   0.000000   0.000000
    9       25.992958     26.396241   0.000000   0.000000
   10       29.169939     29.424099   0.000000   0.000000
   11       32.783354     33.457824   0.000000   0.000000
   12       37.262343     37.906712   0.000000   0.000000
 
 -0.3125000E+00  0.3125000E+00  0.3125000E+00  0.1171875E-01
    1        1.702171      2.866485   1.000000   1.000000
    2        2.182725      4.189017   1.000000   1.000000
    3        4.504768      6.425602   1.000000   0.160701
    4        4.504768      6.425603   1.000000   0.000000
    5        5.225188      7.368075   1.175214   0.000000
    6        8.011049      9.568320  -0.021449   0.000000
    7       20.415513     20.984531   0.000000   0.000000
    8       20.415514     20.984535   0.000000   0.000000
    9       22.643227     23.346122   0.000000   0.000000
   10       24.778280     25.281133   0.000000   0.000000
   11       36.708925     37.416591   0.000000   0.000000
   12       41.473206     41.873267   0.000000   0.000000
 
 -0.4375000E+00  0.4375000E+00  0.3125000E+00  0.4687500E-01
    1        1.587926      3.242604   1.000000   1.000000
    2        1.722066      3.523046   1.000000   1.000000
    3        4.645234      6.608432   1.000000   0.040362
    4        4.933873      6.922186   1.000000   0.000000
    5        5.939268      8.168504   0.219178   0.000000
    6       11.162328     12.119693   0.000000   0.000000
    7       15.980921     16.706736   0.000000   0.000000
    8       18.571136     19.046807   0.000000   0.000000
    9       22.839166     23.544427   0.000000   0.000000
   10       25.760269     26.237873   0.000000   0.000000
   11       32.036892     32.891299   0.000000   0.000000
   12       40.952908     41.319927   0.000000   0.000000
 
 -0.4375000E+00 -0.4375000E+00  0.3125000E+00  0.1562500E-01
    1        1.444117      3.211571   1.000000   1.000000
    2        1.444117      3.211571   1.000000   1.000000
    3        4.754410      6.696409   1.000000   0.001265
    4        5.780408      7.957011   1.000000   0.000000
    5        5.780409      7.957014   0.950292   0.000000
    6       14.590388     15.262453   0.000000   0.000000
    7       14.590390     15.262458   0.000000   0.000000
    8       15.755269     16.326770   0.000000   0.000000
    9       24.316490     24.887854   0.000000   0.000000
   10       24.316490     24.887855   0.000000   0.000000
   11       29.519104     30.505804   0.000000   0.000000
   12       41.510101     41.871239   0.000000   0.000000
 
 -0.4375000E+00  0.4375000E+00  0.4375000E+00  0.1171875E-01
    1        1.175656      2.921781   1.000000   1.000000
    2        1.177493      2.977384   1.000000   1.000000
    3        5.738750      7.898589   1.000000  -0.015712
    4        5.738751      7.898591   1.000000   0.000000
    5        5.903676      8.134458   0.137010   0.000000
    6       13.976914     14.491315   0.000000   0.000000
    7       16.521125     16.835000   0.000000   0.000000
    8       16.521126     16.835005   0.000000   0.000000
    9       21.774179     22.698987   0.000000   0.000000
   10       22.964293     23.712276   0.000000   0.000000
   11       27.991145     29.008370   0.000000   0.000000
   12       44.697232     44.923967   0.000000   0.000000
