PROCAR lm decomposed
# of k-points:   26         # of bands:  12         # of ions:   1

 k-point    1 :    0.06250000 0.06250000 0.06250000     weight = 0.01562500

band   1 # energy   -1.60262961 # occ.  1.00000000
 
ion      s     py     pz     px    dxy    dyz    dz2    dxz    dx2    tot
  1  0.669  0.022  0.022  0.022  0.002  0.002  0.000  0.002  0.000  0.741
 
band   2 # energy    3.35444541 # occ.  1.00000000
 
ion      s     py     pz     px    dxy    dyz    dz2    dxz    dx2    tot
  1  0.000  0.000  0.002  0.001  0.602  0.272  0.023  0.068  0.001  0.970
 
band   3 # energy    3.35444541 # occ.  1.00000000
 
ion      s     py     pz     px    dxy    dyz    dz2    dxz    dx2    tot
  1  0.000  0.002  0.000  0.001  0.026  0.356  0.001  0.560  0.023  0.970
 
band   4 # energy    4.17081648 # occ.  1.00000000
 
ion      s     py     pz     px    dxy    dyz    dz2    dxz    dx2    tot
  1  0.002  0.004  0.004  0.004  0.321  0.321  0.000  0.321  0.000  0.976
 
band   5 # energy    4.77151969 # occ.  1.00000000
 
ion      s     py     pz     px    dxy    dyz    dz2    dxz    dx2    tot
  1  0.000  0.000  0.000  0.000  0.018  0.004  0.931  0.006  0.011  0.969
 
band   6 # energy    4.77151969 # occ.  1.00339464
 
ion      s     py     pz     px    dxy    dyz    dz2    dxz    dx2    tot
  1  0.000  0.000  0.000  0.000  0.000  0.014  0.011  0.013  0.931  0.969
 
band   7 # energy   27.40162756 # occ.  0.00000000
 
ion      s     py     pz     px    dxy    dyz    dz2    dxz    dx2    tot
  1  0.000  0.005  0.051  0.051  0.130  0.130  0.136  0.012  0.054  0.570
 
band   8 # energy   27.40162756 # occ.  0.00000000
 
ion      s     py     pz     px    dxy    dyz    dz2    dxz    dx2    tot
  1  0.000  0.067  0.020  0.020  0.052  0.051  0.054  0.169  0.136  0.570
 
band   9 # energy   31.44805171 # occ.  0.00000000
 
ion      s     py     pz     px    dxy    dyz    dz2    dxz    dx2    tot
  1  0.078  0.169  0.169  0.169  0.152  0.152  0.000  0.152  0.000  1.042
 
band  10 # energy   31.91693234 # occ.  0.00000000
 
ion      s     py     pz     px    dxy    dyz    dz2    dxz    dx2    tot
  1  0.000  0.000  0.000  0.000  0.000  0.000  0.000  0.000  0.000  0.000
 
band  11 # energy   37.04383116 # occ.  0.00000000
 
ion      s     py     pz     px    dxy    dyz    dz2    dxz    dx2    tot
  1  0.000  0.169  0.053  0.077  0.019  0.027  0.014  0.060  0.039  0.458
 
band  12 # energy   37.04383116 # occ.  0.00000000
 
ion      s     py     pz     px    dxy    dyz    dz2    dxz    dx2    tot
  1  0.000  0.030  0.147  0.122  0.052  0.043  0.039  0.011  0.014  0.458
 

 k-point    2 :    0.18750000 0.06250000 0.06250000     weight = 0.04687500

band   1 # energy   -0.00080978 # occ.  1.00000000
 
ion      s     py     pz     px    dxy    dyz    dz2    dxz    dx2    tot
  1  0.514  0.064  0.064  0.019  0.007  0.068  0.004  0.007  0.011  0.759
 
band   2 # energy    2.93815391 # occ.  1.00000000
 
ion      s     py     pz     px    dxy    dyz    dz2    dxz    dx2    tot
  1  0.000  0.002  0.002  0.000  0.466  0.000  0.019  0.466  0.006  0.961
 
band   3 # energy    3.15331422 # occ.  1.00000000
 
ion      s     py     pz     px    dxy    dyz    dz2    dxz    dx2    tot
  1  0.013  0.019  0.019  0.002  0.092  0.545  0.038  0.092  0.115  0.937
 
band   4 # energy    4.70896207 # occ.  1.00000000
 
ion      s     py     pz     px    dxy    dyz    dz2    dxz    dx2    tot
  1  0.001  0.000  0.000  0.000  0.016  0.153  0.197  0.016  0.590  0.973
 
band   5 # energy    4.89741727 # occ.  1.00101585
 
ion      s     py     pz     px    dxy    dyz    dz2    dxz    dx2    tot
  1  0.000  0.000  0.000  0.000  0.014  0.000  0.711  0.014  0.237  0.976
 
band   6 # energy    5.21015614 # occ.  0.88031981
 
ion      s     py     pz     px    dxy    dyz    dz2    dxz    dx2    tot
  1  0.014  0.012  0.012  0.011  0.369  0.180  0.000  0.369  0.000  0.969
 
band   7 # energy   21.97228684 # occ.  0.00000000
 
ion      s     py     pz     px    dxy    dyz    dz2    dxz    dx2    tot
  1  0.060  0.116  0.116  0.024  0.009  0.310  0.036  0.009  0.109  0.789
 
band   8 # energy   25.05163651 # occ.  0.00000000
 
ion      s     py     pz     px    dxy    dyz    dz2    dxz    dx2    tot
  1  0.000  0.103  0.103  0.000  0.157  0.000  0.080  0.157  0.027  0.626
 
band   9 # energy   27.52354785 # occ.  0.00000000
 
ion      s     py     pz     px    dxy    dyz    dz2    dxz    dx2    tot
  1  0.127  0.058  0.058  0.387  0.110  0.002  0.010  0.110  0.030  0.892
 
band  10 # energy   32.27669132 # occ.  0.00000000
 
ion      s     py     pz     px    dxy    dyz    dz2    dxz    dx2    tot
  1  0.000  0.002  0.002  0.000  0.180  0.000  0.019  0.180  0.006  0.390
 
band  11 # energy   36.51694424 # occ.  0.00000000
 
ion      s     py     pz     px    dxy    dyz    dz2    dxz    dx2    tot
  1  0.035  0.053  0.053  0.152  0.066  0.087  0.111  0.066  0.332  0.955
 
band  12 # energy   37.67472331 # occ.  0.00000000
 
ion      s     py     pz     px    dxy    dyz    dz2    dxz    dx2    tot
  1  0.000  0.102  0.102  0.000  0.149  0.000  0.003  0.149  0.001  0.506
 

 k-point    3 :    0.31250000 0.06250000 0.06250000     weight = 0.04687500

band   1 # energy    1.12057289 # occ.  1.00000000
 
ion      s     py     pz     px    dxy    dyz    dz2    dxz    dx2    tot
  1  0.210  0.024  0.024  0.017  0.001  0.404  0.043  0.001  0.129  0.853
 
band   2 # energy    2.58218602 # occ.  1.00000000
 
ion      s     py     pz     px    dxy    dyz    dz2    dxz    dx2    tot
  1  0.000  0.003  0.003  0.000  0.471  0.000  0.006  0.471  0.002  0.956
 
band   3 # energy    3.94994983 # occ.  1.00000000
 
ion      s     py     pz     px    dxy    dyz    dz2    dxz    dx2    tot
  1  0.083  0.123  0.123  0.000  0.159  0.086  0.031  0.159  0.092  0.856
 
band   4 # energy    4.85452089 # occ.  1.00000000
 
ion      s     py     pz     px    dxy    dyz    dz2    dxz    dx2    tot
  1  0.002  0.002  0.002  0.001  0.017  0.292  0.162  0.017  0.485  0.980
 
band   5 # energy    4.99742384 # occ.  1.03394846
 
ion      s     py     pz     px    dxy    dyz    dz2    dxz    dx2    tot
  1  0.000  0.000  0.000  0.000  0.005  0.000  0.729  0.005  0.243  0.982
 
band   6 # energy    6.65984811 # occ.  0.00868735
 
ion      s     py     pz     px    dxy    dyz    dz2    dxz    dx2    tot
  1  0.049  0.063  0.063  0.010  0.315  0.112  0.001  0.315  0.003  0.931
 
band   7 # energy   16.48581730 # occ.  0.00000000
 
ion      s     py     pz     px    dxy    dyz    dz2    dxz    dx2    tot
  1  0.223  0.106  0.106  0.014  0.005  0.308  0.023  0.005  0.070  0.858
 
band   8 # energy   23.33196336 # occ.  0.00000000
 
ion      s     py     pz     px    dxy    dyz    dz2    dxz    dx2    tot
  1  0.000  0.131  0.131  0.000  0.144  0.000  0.023  0.144  0.008  0.581
 
band   9 # energy   25.14981665 # occ.  0.00000000
 
ion      s     py     pz     px    dxy    dyz    dz2    dxz    dx2    tot
  1  0.127  0.010  0.010  0.533  0.037  0.012  0.013  0.037  0.038  0.816
 
band  10 # energy   31.77575091 # occ.  0.00000000
 
ion      s     py     pz     px    dxy    dyz    dz2    dxz    dx2    tot
  1  0.000  0.006  0.006  0.000  0.380  0.000  0.006  0.380  0.002  0.780
 
band  11 # energy   35.82010094 # occ.  0.00000000
 
ion      s     py     pz     px    dxy    dyz    dz2    dxz    dx2    tot
  1  0.103  0.022  0.022  0.127  0.017  0.001  0.160  0.017  0.481  0.950
 
band  12 # energy   41.02985546 # occ.  0.00000000
 
ion      s     py     pz     px    dxy    dyz    dz2    dxz    dx2    tot
  1  0.002  0.100  0.078  0.000  0.069  0.011  0.140  0.056  0.044  0.501
 

 k-point    4 :    0.43750000 0.06250000 0.06250000     weight = 0.02343750

band   1 # energy    1.16541683 # occ.  1.00000000
 
ion      s     py     pz     px    dxy    dyz    dz2    dxz    dx2    tot
  1  0.119  0.000  0.000  0.016  0.000  0.496  0.064  0.000  0.191  0.885
 
band   2 # energy    2.44550519 # occ.  1.00000000
 
ion      s     py     pz     px    dxy    dyz    dz2    dxz    dx2    tot
  1  0.000  0.004  0.004  0.000  0.474  0.000  0.000  0.474  0.000  0.955
 
band   3 # energy    4.92012141 # occ.  1.00000000
 
ion      s     py     pz     px    dxy    dyz    dz2    dxz    dx2    tot
  1  0.011  0.000  0.000  0.001  0.000  0.293  0.169  0.000  0.507  0.981
 
band   4 # energy    4.96010986 # occ.  1.00000000
 
ion      s     py     pz     px    dxy    dyz    dz2    dxz    dx2    tot
  1  0.000  0.142  0.142  0.000  0.296  0.000  0.000  0.296  0.000  0.876
 
band   5 # energy    5.03838920 # occ.  1.08039810
 
ion      s     py     pz     px    dxy    dyz    dz2    dxz    dx2    tot
  1  0.000  0.000  0.000  0.000  0.000  0.000  0.738  0.000  0.246  0.985
 
band   6 # energy    8.05232813 # occ. -0.00485690
 
ion      s     py     pz     px    dxy    dyz    dz2    dxz    dx2    tot
  1  0.000  0.209  0.209  0.000  0.208  0.000  0.000  0.208  0.000  0.835
 
band   7 # energy   13.37982770 # occ.  0.00000000
 
ion      s     py     pz     px    dxy    dyz    dz2    dxz    dx2    tot
  1  0.423  0.000  0.000  0.017  0.000  0.383  0.022  0.000  0.067  0.913
 
band   8 # energy   22.69951265 # occ.  0.00000000
 
ion      s     py     pz     px    dxy    dyz    dz2    dxz    dx2    tot
  1  0.000  0.140  0.140  0.000  0.138  0.000  0.000  0.138  0.000  0.556
 
band   9 # energy   24.26465700 # occ.  0.00000000
 
ion      s     py     pz     px    dxy    dyz    dz2    dxz    dx2    tot
  1  0.124  0.000  0.000  0.588  0.000  0.022  0.012  0.000  0.036  0.782
 
band  10 # energy   31.55090825 # occ.  0.00000000
 
ion      s     py     pz     px    dxy    dyz    dz2    dxz    dx2    tot
  1  0.000  0.006  0.006  0.000  0.440  0.000  0.000  0.440  0.000  0.893
 
band  11 # energy   35.72132906 # occ.  0.00000000
 
ion      s     py     pz     px    dxy    dyz    dz2    dxz    dx2    tot
  1  0.143  0.000  0.000  0.118  0.000  0.009  0.182  0.000  0.546  0.998
 
band  12 # energy   40.90576578 # occ.  0.00000000
 
ion      s     py     pz     px    dxy    dyz    dz2    dxz    dx2    tot
  1  0.000  0.034  0.034  0.000  0.007  0.000  0.000  0.007  0.000  0.082
 

 k-point    5 :   -0.06250000 0.06250000 0.06250000     weight = 0.01171875

band   1 # energy   -2.22447848 # occ.  1.00000000
 
ion      s     py     pz     px    dxy    dyz    dz2    dxz    dx2    tot
  1  0.715  0.000  0.000  0.023  0.000  0.000  0.000  0.000  0.000  0.739
 
band   2 # energy    3.56169203 # occ.  1.00000000
 
ion      s     py     pz     px    dxy    dyz    dz2    dxz    dx2    tot
  1  0.000  0.001  0.001  0.000  0.487  0.000  0.000  0.487  0.000  0.977
 
band   3 # energy    3.56169272 # occ.  1.00000000
 
ion      s     py     pz     px    dxy    dyz    dz2    dxz    dx2    tot
  1  0.000  0.001  0.001  0.000  0.487  0.000  0.000  0.487  0.000  0.977
 
band   4 # energy    3.65111770 # occ.  1.00000000
 
ion      s     py     pz     px    dxy    dyz    dz2    dxz    dx2    tot
  1  0.000  0.000  0.000  0.000  0.000  0.978  0.000  0.000  0.000  0.978
 
band   5 # energy    4.69422894 # occ.  1.00000000
 
ion      s     py     pz     px    dxy    dyz    dz2    dxz    dx2    tot
  1  0.000  0.000  0.000  0.000  0.000  0.000  0.724  0.000  0.241  0.965
 
band   6 # energy    4.89738715 # occ.  1.00000000
 
ion      s     py     pz     px    dxy    dyz    dz2    dxz    dx2    tot
  1  0.000  0.000  0.000  0.000  0.000  0.000  0.243  0.000  0.729  0.973
 
band   7 # energy   29.30906689 # occ.  0.00000000
 
ion      s     py     pz     px    dxy    dyz    dz2    dxz    dx2    tot
  1  0.000  0.000  0.000  0.000  0.000  0.000  0.198  0.000  0.066  0.265
 
band   8 # energy   30.66736094 # occ.  0.00000000
 
ion      s     py     pz     px    dxy    dyz    dz2    dxz    dx2    tot
  1  0.000  0.012  0.012  0.000  0.127  0.000  0.000  0.127  0.000  0.279
 
band   9 # energy   30.66736246 # occ.  0.00000000
 
ion      s     py     pz     px    dxy    dyz    dz2    dxz    dx2    tot
  1  0.000  0.012  0.012  0.000  0.127  0.000  0.000  0.127  0.000  0.279
 
band  10 # energy   33.89196135 # occ.  0.00000000
 
ion      s     py     pz     px    dxy    dyz    dz2    dxz    dx2    tot
  1  0.018  0.000  0.000  0.292  0.000  0.000  0.079  0.000  0.236  0.625
 
band  11 # energy   36.11481122 # occ.  0.00000000
 
ion      s     py     pz     px    dxy    dyz    dz2    dxz    dx2    tot
  1  0.000  0.223  0.223  0.000  0.268  0.000  0.000  0.268  0.000  0.983
 
band  12 # energy   36.11481209 # occ.  0.00000000
 
ion      s     py     pz     px    dxy    dyz    dz2    dxz    dx2    tot
  1  0.000  0.223  0.223  0.000  0.268  0.000  0.000  0.268  0.000  0.983
 

 k-point    6 :    0.18750000 0.18750000 0.06250000     weight = 0.04687500

band   1 # energy    1.47547861 # occ.  1.00000000
 
ion      s     py     pz     px    dxy    dyz    dz2    dxz    dx2    tot
  1  0.287  0.045  0.071  0.045  0.000  0.161  0.046  0.161  0.000  0.816
 
band   2 # energy    2.65235903 # occ.  1.00000000
 
ion      s     py     pz     px    dxy    dyz    dz2    dxz    dx2    tot
  1  0.000  0.020  0.000  0.020  0.000  0.346  0.000  0.346  0.197  0.931
 
band   3 # energy    2.86080387 # occ.  1.00000000
 
ion      s     py     pz     px    dxy    dyz    dz2    dxz    dx2    tot
  1  0.032  0.004  0.066  0.004  0.665  0.075  0.007  0.075  0.000  0.926
 
band   4 # energy    4.79187776 # occ.  1.00000000
 
ion      s     py     pz     px    dxy    dyz    dz2    dxz    dx2    tot
  1  0.000  0.001  0.000  0.001  0.000  0.110  0.000  0.110  0.754  0.976
 
band   5 # energy    5.03118448 # occ.  1.00083046
 
ion      s     py     pz     px    dxy    dyz    dz2    dxz    dx2    tot
  1  0.005  0.000  0.001  0.000  0.000  0.034  0.908  0.034  0.000  0.982
 
band   6 # energy    6.87118913 # occ. -0.01052062
 
ion      s     py     pz     px    dxy    dyz    dz2    dxz    dx2    tot
  1  0.067  0.030  0.058  0.030  0.301  0.216  0.018  0.216  0.000  0.936
 
band   7 # energy   19.43438600 # occ.  0.00000000
 
ion      s     py     pz     px    dxy    dyz    dz2    dxz    dx2    tot
  1  0.000  0.164  0.000  0.164  0.000  0.174  0.000  0.174  0.132  0.809
 
band   8 # energy   20.27986013 # occ.  0.00000000
 
ion      s     py     pz     px    dxy    dyz    dz2    dxz    dx2    tot
  1  0.207  0.013  0.256  0.013  0.078  0.098  0.018  0.098  0.000  0.781
 
band   9 # energy   24.23207394 # occ.  0.00000000
 
ion      s     py     pz     px    dxy    dyz    dz2    dxz    dx2    tot
  1  0.147  0.203  0.007  0.203  0.172  0.006  0.030  0.006  0.000  0.774
 
band  10 # energy   34.22894330 # occ.  0.00000000
 
ion      s     py     pz     px    dxy    dyz    dz2    dxz    dx2    tot
  1  0.000  0.013  0.000  0.013  0.000  0.093  0.000  0.093  0.141  0.352
 
band  11 # energy   37.96955318 # occ.  0.00000000
 
ion      s     py     pz     px    dxy    dyz    dz2    dxz    dx2    tot
  1  0.020  0.022  0.030  0.022  0.398  0.166  0.014  0.166  0.000  0.840
 
band  12 # energy   40.40596192 # occ.  0.00000000
 
ion      s     py     pz     px    dxy    dyz    dz2    dxz    dx2    tot
  1  0.000  0.087  0.000  0.087  0.000  0.035  0.000  0.035  0.418  0.661
 

 k-point    7 :    0.31250000 0.18750000 0.06250000     weight = 0.09375000

band   1 # energy    1.80165938 # occ.  1.00000000
 
ion      s     py     pz     px    dxy    dyz    dz2    dxz    dx2    tot
  1  0.085  0.002  0.006  0.046  0.031  0.532  0.056  0.040  0.099  0.897
 
band   2 # energy    2.48404428 # occ.  1.00000000
 
ion      s     py     pz     px    dxy    dyz    dz2    dxz    dx2    tot
  1  0.000  0.022  0.010  0.012  0.325  0.023  0.000  0.476  0.070  0.937
 
band   3 # energy    3.51146905 # occ.  1.00000000
 
ion      s     py     pz     px    dxy    dyz    dz2    dxz    dx2    tot
  1  0.020  0.084  0.117  0.001  0.371  0.009  0.080  0.144  0.059  0.885
 
band   4 # energy    4.93550925 # occ.  1.00000000
 
ion      s     py     pz     px    dxy    dyz    dz2    dxz    dx2    tot
  1  0.003  0.001  0.000  0.002  0.000  0.213  0.052  0.047  0.663  0.981
 
band   5 # energy    5.12888940 # occ.  1.01001705
 
ion      s     py     pz     px    dxy    dyz    dz2    dxz    dx2    tot
  1  0.004  0.004  0.006  0.000  0.054  0.013  0.768  0.079  0.055  0.983
 
band   6 # energy    9.35894364 # occ. -0.00348303
 
ion      s     py     pz     px    dxy    dyz    dz2    dxz    dx2    tot
  1  0.072  0.119  0.178  0.019  0.192  0.080  0.031  0.173  0.000  0.865
 
band   7 # energy   14.78832768 # occ.  0.00000000
 
ion      s     py     pz     px    dxy    dyz    dz2    dxz    dx2    tot
  1  0.246  0.116  0.029  0.072  0.013  0.294  0.005  0.019  0.063  0.857
 
band   8 # energy   18.68041894 # occ.  0.00000000
 
ion      s     py     pz     px    dxy    dyz    dz2    dxz    dx2    tot
  1  0.178  0.051  0.105  0.151  0.093  0.002  0.000  0.170  0.028  0.779
 
band   9 # energy   22.92699630 # occ.  0.00000000
 
ion      s     py     pz     px    dxy    dyz    dz2    dxz    dx2    tot
  1  0.135  0.111  0.054  0.244  0.112  0.040  0.009  0.043  0.004  0.751
 
band  10 # energy   34.60839150 # occ.  0.00000000
 
ion      s     py     pz     px    dxy    dyz    dz2    dxz    dx2    tot
  1  0.007  0.001  0.001  0.026  0.141  0.007  0.013  0.220  0.146  0.563
 
band  11 # energy   38.99231718 # occ.  0.00000000
 
ion      s     py     pz     px    dxy    dyz    dz2    dxz    dx2    tot
  1  0.004  0.060  0.001  0.000  0.162  0.063  0.096  0.009  0.112  0.506
 
band  12 # energy   41.04643612 # occ.  0.00000000
 
ion      s     py     pz     px    dxy    dyz    dz2    dxz    dx2    tot
  1  0.048  0.007  0.004  0.120  0.067  0.000  0.247  0.035  0.319  0.847
 

 k-point    8 :   -0.18750000 0.18750000 0.06250000     weight = 0.04687500

band   1 # energy   -1.02351551 # occ.  1.00000000
 
ion      s     py     pz     px    dxy    dyz    dz2    dxz    dx2    tot
  1  0.617  0.019  0.000  0.083  0.014  0.000  0.006  0.000  0.005  0.744
 
band   2 # energy    3.28978818 # occ.  1.00000000
 
ion      s     py     pz     px    dxy    dyz    dz2    dxz    dx2    tot
  1  0.000  0.000  0.002  0.000  0.000  0.376  0.000  0.592  0.000  0.970
 
band   3 # energy    3.48699808 # occ.  1.00000000
 
ion      s     py     pz     px    dxy    dyz    dz2    dxz    dx2    tot
  1  0.005  0.013  0.000  0.007  0.811  0.000  0.108  0.000  0.012  0.956
 
band   4 # energy    4.27782168 # occ.  1.00000000
 
ion      s     py     pz     px    dxy    dyz    dz2    dxz    dx2    tot
  1  0.000  0.000  0.007  0.000  0.000  0.598  0.000  0.372  0.000  0.976
 
band   5 # energy    4.44933233 # occ.  1.00000000
 
ion      s     py     pz     px    dxy    dyz    dz2    dxz    dx2    tot
  1  0.000  0.000  0.000  0.000  0.128  0.000  0.653  0.000  0.179  0.960
 
band   6 # energy    4.99953420 # occ.  1.01071994
 
ion      s     py     pz     px    dxy    dyz    dz2    dxz    dx2    tot
  1  0.005  0.000  0.000  0.001  0.005  0.000  0.188  0.000  0.777  0.976
 
band   7 # energy   24.85843937 # occ.  0.00000000
 
ion      s     py     pz     px    dxy    dyz    dz2    dxz    dx2    tot
  1  0.026  0.123  0.000  0.055  0.284  0.000  0.212  0.000  0.016  0.717
 
band   8 # energy   28.24514391 # occ.  0.00000000
 
ion      s     py     pz     px    dxy    dyz    dz2    dxz    dx2    tot
  1  0.025  0.001  0.000  0.140  0.056  0.000  0.046  0.000  0.149  0.416
 
band   9 # energy   29.16112221 # occ.  0.00000000
 
ion      s     py     pz     px    dxy    dyz    dz2    dxz    dx2    tot
  1  0.000  0.000  0.197  0.000  0.000  0.026  0.000  0.604  0.000  0.828
 
band  10 # energy   33.27407380 # occ.  0.00000000
 
ion      s     py     pz     px    dxy    dyz    dz2    dxz    dx2    tot
  1  0.001  0.245  0.000  0.080  0.237  0.000  0.117  0.000  0.002  0.683
 
band  11 # energy   33.45483052 # occ.  0.00000000
 
ion      s     py     pz     px    dxy    dyz    dz2    dxz    dx2    tot
  1  0.000  0.000  0.358  0.000  0.000  0.486  0.000  0.009  0.000  0.853
 
band  12 # energy   35.02555979 # occ.  0.00000000
 
ion      s     py     pz     px    dxy    dyz    dz2    dxz    dx2    tot
  1  0.095  0.133  0.000  0.121  0.001  0.000  0.105  0.000  0.006  0.462
 

 k-point    9 :    0.31250000 0.31250000 0.06250000     weight = 0.01562500

band   1 # energy    2.12243512 # occ.  1.00000000
 
ion      s     py     pz     px    dxy    dyz    dz2    dxz    dx2    tot
  1  0.039  0.007  0.007  0.007  0.291  0.291  0.000  0.291  0.000  0.933
 
band   2 # energy    2.85302491 # occ.  1.00000000
 
ion      s     py     pz     px    dxy    dyz    dz2    dxz    dx2    tot
  1  0.000  0.024  0.094  0.024  0.362  0.091  0.215  0.091  0.000  0.901
 
band   3 # energy    2.85302584 # occ.  1.00000000
 
ion      s     py     pz     px    dxy    dyz    dz2    dxz    dx2    tot
  1  0.000  0.071  0.000  0.071  0.000  0.272  0.000  0.272  0.215  0.901
 
band   4 # energy    5.07621722 # occ.  1.00000000
 
ion      s     py     pz     px    dxy    dyz    dz2    dxz    dx2    tot
  1  0.000  0.004  0.000  0.004  0.000  0.121  0.000  0.121  0.733  0.983
 
band   5 # energy    5.07621740 # occ.  1.00000000
 
ion      s     py     pz     px    dxy    dyz    dz2    dxz    dx2    tot
  1  0.000  0.001  0.005  0.001  0.162  0.040  0.733  0.040  0.000  0.983
 
band   6 # energy   12.91212721 # occ.  0.00000000
 
ion      s     py     pz     px    dxy    dyz    dz2    dxz    dx2    tot
  1  0.000  0.073  0.292  0.073  0.224  0.056  0.061  0.056  0.000  0.835
 
band   7 # energy   12.91212853 # occ.  0.00000000
 
ion      s     py     pz     px    dxy    dyz    dz2    dxz    dx2    tot
  1  0.000  0.219  0.000  0.219  0.000  0.168  0.000  0.168  0.061  0.835
 
band   8 # energy   15.48489808 # occ.  0.00000000
 
ion      s     py     pz     px    dxy    dyz    dz2    dxz    dx2    tot
  1  0.585  0.002  0.002  0.002  0.080  0.080  0.000  0.080  0.000  0.833
 
band   9 # energy   22.44987317 # occ.  0.00000000
 
ion      s     py     pz     px    dxy    dyz    dz2    dxz    dx2    tot
  1  0.134  0.129  0.129  0.129  0.083  0.083  0.000  0.083  0.000  0.770
 
band  10 # energy   37.07252491 # occ.  0.00000000
 
ion      s     py     pz     px    dxy    dyz    dz2    dxz    dx2    tot
  1  0.000  0.008  0.032  0.008  0.066  0.016  0.289  0.016  0.000  0.435
 
band  11 # energy   37.07252581 # occ.  0.00000000
 
ion      s     py     pz     px    dxy    dyz    dz2    dxz    dx2    tot
  1  0.000  0.024  0.000  0.024  0.000  0.049  0.000  0.049  0.289  0.435
 
band  12 # energy   44.35938690 # occ.  0.00000000
 
ion      s     py     pz     px    dxy    dyz    dz2    dxz    dx2    tot
  1  0.024  0.050  0.050  0.050  0.368  0.368  0.000  0.368  0.000  1.281
 

 k-point   10 :   -0.31250000 0.31250000 0.06250000     weight = 0.04687500

band   1 # energy    0.60945592 # occ.  1.00000000
 
ion      s     py     pz     px    dxy    dyz    dz2    dxz    dx2    tot
  1  0.369  0.029  0.000  0.093  0.202  0.000  0.095  0.000  0.010  0.798
 
band   2 # energy    2.88598337 # occ.  1.00000000
 
ion      s     py     pz     px    dxy    dyz    dz2    dxz    dx2    tot
  1  0.000  0.000  0.002  0.000  0.000  0.435  0.000  0.525  0.000  0.962
 
band   3 # energy    3.55139301 # occ.  1.00000000
 
ion      s     py     pz     px    dxy    dyz    dz2    dxz    dx2    tot
  1  0.061  0.066  0.000  0.073  0.262  0.000  0.273  0.000  0.148  0.883
 
band   4 # energy    4.65933274 # occ.  1.00000000
 
ion      s     py     pz     px    dxy    dyz    dz2    dxz    dx2    tot
  1  0.001  0.011  0.000  0.011  0.451  0.000  0.477  0.000  0.020  0.970
 
band   5 # energy    5.18807903 # occ.  1.01773413
 
ion      s     py     pz     px    dxy    dyz    dz2    dxz    dx2    tot
  1  0.034  0.009  0.000  0.019  0.006  0.000  0.099  0.000  0.801  0.967
 
band   6 # energy    5.30799879 # occ.  0.70530442
 
ion      s     py     pz     px    dxy    dyz    dz2    dxz    dx2    tot
  1  0.000  0.000  0.009  0.000  0.000  0.537  0.000  0.434  0.000  0.980
 
band   7 # energy   19.06118352 # occ.  0.00000000
 
ion      s     py     pz     px    dxy    dyz    dz2    dxz    dx2    tot
  1  0.141  0.172  0.000  0.092  0.307  0.000  0.123  0.000  0.007  0.842
 
band   8 # energy   25.81349982 # occ.  0.00000000
 
ion      s     py     pz     px    dxy    dyz    dz2    dxz    dx2    tot
  1  0.027  0.057  0.000  0.145  0.004  0.000  0.071  0.000  0.071  0.375
 
band   9 # energy   27.04220666 # occ.  0.00000000
 
ion      s     py     pz     px    dxy    dyz    dz2    dxz    dx2    tot
  1  0.000  0.000  0.466  0.000  0.000  0.017  0.000  0.455  0.000  0.938
 
band  10 # energy   31.55312353 # occ.  0.00000000
 
ion      s     py     pz     px    dxy    dyz    dz2    dxz    dx2    tot
  1  0.000  0.000  0.199  0.000  0.000  0.611  0.000  0.162  0.000  0.972
 
band  11 # energy   33.48642582 # occ.  0.00000000
 
ion      s     py     pz     px    dxy    dyz    dz2    dxz    dx2    tot
  1  0.080  0.230  0.000  0.000  0.022  0.000  0.472  0.000  0.005  0.810
 
band  12 # energy   36.39095950 # occ.  0.00000000
 
ion      s     py     pz     px    dxy    dyz    dz2    dxz    dx2    tot
  1  0.113  0.016  0.000  0.067  0.187  0.000  0.037  0.000  0.112  0.533
 

 k-point   11 :   -0.18750000 0.31250000 0.06250000     weight = 0.04687500

band   1 # energy    0.43088315 # occ.  1.00000000
 
ion      s     py     pz     px    dxy    dyz    dz2    dxz    dx2    tot
  1  0.450  0.013  0.013  0.142  0.040  0.000  0.017  0.040  0.051  0.767
 
band   2 # energy    3.06924804 # occ.  1.00000000
 
ion      s     py     pz     px    dxy    dyz    dz2    dxz    dx2    tot
  1  0.000  0.011  0.011  0.000  0.281  0.000  0.263  0.281  0.088  0.935
 
band   3 # energy    3.27965926 # occ.  1.00000000
 
ion      s     py     pz     px    dxy    dyz    dz2    dxz    dx2    tot
  1  0.010  0.005  0.005  0.021  0.220  0.472  0.000  0.220  0.000  0.953
 
band   4 # energy    4.32244220 # occ.  1.00000000
 
ion      s     py     pz     px    dxy    dyz    dz2    dxz    dx2    tot
  1  0.000  0.002  0.002  0.000  0.188  0.000  0.437  0.188  0.146  0.963
 
band   5 # energy    5.02804765 # occ.  1.00204918
 
ion      s     py     pz     px    dxy    dyz    dz2    dxz    dx2    tot
  1  0.001  0.003  0.003  0.001  0.162  0.341  0.076  0.162  0.229  0.980
 
band   6 # energy    5.39133754 # occ.  0.75397910
 
ion      s     py     pz     px    dxy    dyz    dz2    dxz    dx2    tot
  1  0.048  0.007  0.007  0.024  0.053  0.160  0.153  0.053  0.460  0.963
 
band   7 # energy   22.04087235 # occ.  0.00000000
 
ion      s     py     pz     px    dxy    dyz    dz2    dxz    dx2    tot
  1  0.000  0.127  0.127  0.000  0.140  0.000  0.199  0.140  0.066  0.800
 
band   8 # energy   23.06217578 # occ.  0.00000000
 
ion      s     py     pz     px    dxy    dyz    dz2    dxz    dx2    tot
  1  0.145  0.066  0.066  0.178  0.150  0.018  0.001  0.150  0.004  0.778
 
band   9 # energy   29.58696244 # occ.  0.00000000
 
ion      s     py     pz     px    dxy    dyz    dz2    dxz    dx2    tot
  1  0.000  0.057  0.057  0.000  0.142  0.000  0.196  0.142  0.065  0.660
 
band  10 # energy   29.89244528 # occ.  0.00000000
 
ion      s     py     pz     px    dxy    dyz    dz2    dxz    dx2    tot
  1  0.001  0.226  0.226  0.059  0.020  0.090  0.003  0.020  0.010  0.656
 
band  11 # energy   33.66946230 # occ.  0.00000000
 
ion      s     py     pz     px    dxy    dyz    dz2    dxz    dx2    tot
  1  0.101  0.002  0.002  0.062  0.126  0.356  0.013  0.126  0.040  0.828
 
band  12 # energy   38.34575923 # occ.  0.00000000
 
ion      s     py     pz     px    dxy    dyz    dz2    dxz    dx2    tot
  1  0.000  0.146  0.146  0.000  0.003  0.000  0.108  0.003  0.036  0.442
 

 k-point   12 :   -0.43750000 0.43750000 0.06250000     weight = 0.04687500

band   1 # energy    1.04356221 # occ.  1.00000000
 
ion      s     py     pz     px    dxy    dyz    dz2    dxz    dx2    tot
  1  0.145  0.000  0.000  0.016  0.435  0.000  0.277  0.000  0.001  0.875
 
band   2 # energy    2.61228686 # occ.  1.00000000
 
ion      s     py     pz     px    dxy    dyz    dz2    dxz    dx2    tot
  1  0.000  0.000  0.002  0.000  0.000  0.465  0.000  0.491  0.000  0.959
 
band   3 # energy    4.34098263 # occ.  1.00000000
 
ion      s     py     pz     px    dxy    dyz    dz2    dxz    dx2    tot
  1  0.018  0.065  0.000  0.071  0.002  0.000  0.101  0.000  0.651  0.908
 
band   4 # energy    4.83088319 # occ.  1.00000000
 
ion      s     py     pz     px    dxy    dyz    dz2    dxz    dx2    tot
  1  0.008  0.006  0.000  0.004  0.338  0.000  0.542  0.000  0.079  0.976
 
band   5 # energy    6.13724516 # occ.  0.45982193
 
ion      s     py     pz     px    dxy    dyz    dz2    dxz    dx2    tot
  1  0.000  0.000  0.002  0.000  0.000  0.511  0.000  0.478  0.000  0.991
 
band   6 # energy    6.55906905 # occ.  0.00176613
 
ion      s     py     pz     px    dxy    dyz    dz2    dxz    dx2    tot
  1  0.055  0.201  0.000  0.242  0.060  0.000  0.008  0.000  0.256  0.821
 
band   7 # energy   14.28722363 # occ.  0.00000000
 
ion      s     py     pz     px    dxy    dyz    dz2    dxz    dx2    tot
  1  0.349  0.083  0.000  0.023  0.343  0.000  0.098  0.000  0.003  0.898
 
band   8 # energy   24.42276672 # occ.  0.00000000
 
ion      s     py     pz     px    dxy    dyz    dz2    dxz    dx2    tot
  1  0.025  0.106  0.000  0.131  0.001  0.000  0.070  0.000  0.008  0.341
 
band   9 # energy   25.40793989 # occ.  0.00000000
 
ion      s     py     pz     px    dxy    dyz    dz2    dxz    dx2    tot
  1  0.000  0.000  0.618  0.000  0.000  0.048  0.000  0.185  0.000  0.852
 
band  10 # energy   30.83276204 # occ.  0.00000000
 
ion      s     py     pz     px    dxy    dyz    dz2    dxz    dx2    tot
  1  0.000  0.000  0.123  0.000  0.000  0.571  0.000  0.425  0.000  1.118
 
band  11 # energy   33.76667021 # occ.  0.00000000
 
ion      s     py     pz     px    dxy    dyz    dz2    dxz    dx2    tot