<?xml version="1.0" encoding="ISO-8859-1"?>
<modeling>
 <generator>
  <i name="program" type="string">vasp </i>
  <i name="version" type="string">5.4.1  </i>
  <i name="subversion" type="string">24Jun15 (build Jul 19 2016 16:50:41) complex                          parallel </i>
  <i name="platform" type="string">IFC91_ompi </i>
  <i name="date" type="string">2019 10 17 </i>
  <i name="time" type="string">12:02:21 </i>
 </generator>
 <incar>
  <i type="string" name="SYSTEM"> Fe BCC</i>
  <i type="string" name="PREC">accurate</i>
  <i type="int" name="ISPIN">     2</i>
  <i name="EDIFF">      0.00000100</i>
  <i name="ENMAX">    400.00000000</i>
  <v name="MAGMOM">      4.00000000</v>
  <i type="int" name="ISMEAR">    -5</i>
  <i type="logical" name="LORBIT"> F  </i>
  <v type="int" name="KPOINT_BSE">    -1     0     0     0</v>
 </incar>
 <kpoints>
  <generation param="Monkhorst-Pack">
   <v type="int" name="divisions">       8        8        8 </v>
   <v name="usershift">      0.00000000       0.00000000       0.00000000 </v>
   <v name="genvec1">      0.12500000       0.00000000       0.00000000 </v>
   <v name="genvec2">      0.00000000       0.12500000       0.00000000 </v>
   <v name="genvec3">      0.00000000       0.00000000       0.12500000 </v>
   <v name="shift">      0.50000000       0.50000000       0.50000000 </v>
  </generation>
  <varray name="kpointlist" >
   <v>       0.06250000       0.06250000       0.06250000 </v>
   <v>       0.18750000       0.06250000       0.06250000 </v>
   <v>       0.31250000       0.06250000       0.06250000 </v>
   <v>       0.43750000       0.06250000       0.06250000 </v>
   <v>      -0.06250000       0.06250000       0.06250000 </v>
   <v>       0.18750000       0.18750000       0.06250000 </v>
   <v>       0.31250000       0.18750000       0.06250000 </v>
   <v>      -0.18750000       0.18750000       0.06250000 </v>
   <v>       0.31250000       0.31250000       0.06250000 </v>
   <v>      -0.31250000       0.31250000       0.06250000 </v>
   <v>      -0.18750000       0.31250000       0.06250000 </v>
   <v>      -0.43750000       0.43750000       0.06250000 </v>
   <v>      -0.31250000       0.43750000       0.06250000 </v>
   <v>      -0.43750000      -0.43750000       0.06250000 </v>
   <v>      -0.31250000      -0.43750000       0.06250000 </v>
   <v>       0.18750000       0.18750000       0.18750000 </v>
   <v>       0.31250000       0.18750000       0.18750000 </v>
   <v>      -0.18750000       0.18750000       0.18750000 </v>
   <v>      -0.31250000       0.31250000       0.18750000 </v>
   <v>      -0.43750000       0.43750000       0.18750000 </v>
   <v>      -0.31250000       0.43750000       0.18750000 </v>
   <v>      -0.43750000      -0.43750000       0.18750000 </v>
   <v>      -0.31250000       0.31250000       0.31250000 </v>
   <v>      -0.43750000       0.43750000       0.31250000 </v>
   <v>      -0.43750000      -0.43750000       0.31250000 </v>
   <v>      -0.43750000       0.43750000       0.43750000 </v>
  </varray>
  <varray name="weights" >
   <v>       0.01562500 </v>
   <v>       0.04687500 </v>
   <v>       0.04687500 </v>
   <v>       0.02343750 </v>
   <v>       0.01171875 </v>
   <v>       0.04687500 </v>
   <v>       0.09375000 </v>
   <v>       0.04687500 </v>
   <v>       0.01562500 </v>
   <v>       0.04687500 </v>
   <v>       0.04687500 </v>
   <v>       0.04687500 </v>
   <v>       0.09375000 </v>
   <v>       0.04687500 </v>
   <v>       0.04687500 </v>
   <v>       0.01562500 </v>
   <v>       0.02343750 </v>
   <v>       0.01171875 </v>
   <v>       0.04687500 </v>
   <v>       0.04687500 </v>
   <v>       0.04687500 </v>
   <v>       0.04687500 </v>
   <v>       0.01171875 </v>
   <v>       0.04687500 </v>
   <v>       0.01562500 </v>
   <v>       0.01171875 </v>
  </varray>
  <varray name="tetrahedronlist"  type="int" >
   <v type="int" >        4        1        2        2        6 </v>
   <v type="int" >        8        2        2        6        6 </v>
   <v type="int" >        4        2        6        6       16 </v>
   <v type="int" >        4        2        3        6        7 </v>
   <v type="int" >        4        2        6        6        7 </v>
   <v type="int" >       12        6        6        7       16 </v>
   <v type="int" >        8        3        6        7        7 </v>
   <v type="int" >        8        6        7        7       17 </v>
   <v type="int" >        8        6        7       16       17 </v>
   <v type="int" >        4        3        4        7        7 </v>
   <v type="int" >        4        3        7        7        7 </v>
   <v type="int" >       16        7        7        7       17 </v>
   <v type="int" >        8        4        7        7        7 </v>
   <v type="int" >        4        7        7        7       16 </v>
   <v type="int" >       20        7        7       16       17 </v>
   <v type="int" >        4        3        4        6        7 </v>
   <v type="int" >        4        4        6        7        7 </v>
   <v type="int" >       16        6        7        7       16 </v>
   <v type="int" >        8        3        6        6        7 </v>
   <v type="int" >        4        6        6        6        7 </v>
   <v type="int" >        4        2        2        3        6 </v>
   <v type="int" >        8        2        3        6        6 </v>
   <v type="int" >        4        2        6        6        6 </v>
   <v type="int" >        4        2        2        2        6 </v>
   <v type="int" >        8        2        2        6       11 </v>
   <v type="int" >        4        2        6        6       11 </v>
   <v type="int" >       16        1        2        2        8 </v>
   <v type="int" >        4        2        2        2        8 </v>
   <v type="int" >       12        2        2        8       11 </v>
   <v type="int" >       16        1        2        8        8 </v>
   <v type="int" >        4        2        8        8       18 </v>
   <v type="int" >        4        2        8       11       18 </v>
   <v type="int" >       20        1        5        8        8 </v>
   <v type="int" >        4        1        8        8        8 </v>
   <v type="int" >        4        8        8        8       18 </v>
   <v type="int" >        8        5        8        8        8 </v>
   <v type="int" >        4        8        8        8       11 </v>
   <v type="int" >        4        8        8       11       18 </v>
   <v type="int" >        8        1        2        5        8 </v>
   <v type="int" >        8        2        5        8        8 </v>
   <v type="int" >        8        2        8        8       11 </v>
   <v type="int" >        4        2        2        6        8 </v>
   <v type="int" >        4        2        6        8       11 </v>
   <v type="int" >        4        6        7        9       16 </v>
   <v type="int" >       16        7        9       16       17 </v>
   <v type="int" >       12        9       16       17       17 </v>
   <v type="int" >       20        7        7        9       17 </v>
   <v type="int" >       12        7        9       17       17 </v>
   <v type="int" >        8        7        7       17       17 </v>
   <v type="int" >       12        3        6        7       16 </v>
   <v type="int" >        8        3        7        7       16 </v>
   <v type="int" >        8        3        6        6       16 </v>
   <v type="int" >        4        3        6       13       16 </v>
   <v type="int" >        4        3        7       13       16 </v>
   <v type="int" >        4        2        6        6       10 </v>
   <v type="int" >        4        3        6        6       10 </v>
   <v type="int" >        8        3        6       10       13 </v>
   <v type="int" >       12        2        6       10       11 </v>
   <v type="int" >        4        6       10       11       19 </v>
   <v type="int" >        4        6       10       13       19 </v>
   <v type="int" >        4        2        8       11       11 </v>
   <v type="int" >        4        2       10       11       11 </v>
   <v type="int" >        4       10       11       11       19 </v>
   <v type="int" >        8        8       11       11       18 </v>
   <v type="int" >        8       11       11       18       19 </v>
   <v type="int" >        4       11       11       19       19 </v>
   <v type="int" >        4        8        8       10       18 </v>
   <v type="int" >       12        8       10       11       18 </v>
   <v type="int" >       12       10       11       18       19 </v>
   <v type="int" >        4       10       11       13       18 </v>
   <v type="int" >        4       10       13       18       19 </v>
   <v type="int" >        4        2        3        8       11 </v>
   <v type="int" >        4        3        8       10       11 </v>
   <v type="int" >        8        3       10       11       13 </v>
   <v type="int" >       16        2        3        6       11 </v>
   <v type="int" >        4        3        6        7       11 </v>
   <v type="int" >        4        3        7       11       13 </v>
   <v type="int" >        4        4        7        9       17 </v>
   <v type="int" >        8        4        7        7       17 </v>
   <v type="int" >        4        4        7       14       17 </v>
   <v type="int" >        4        3        7        7       12 </v>
   <v type="int" >        8        4        7        7       12 </v>
   <v type="int" >        8        4        7       12       14 </v>
   <v type="int" >        8        3        7       12       13 </v>
   <v type="int" >        4        7       12       13       20 </v>
   <v type="int" >        4        7       12       14       20 </v>
   <v type="int" >        4        3       10       13       13 </v>
   <v type="int" >        4        3       12       13       13 </v>
   <v type="int" >        4       12       13       13       20 </v>
   <v type="int" >        8       10       13       13       19 </v>
   <v type="int" >       12       13       13       19       21 </v>
   <v type="int" >        4       13       13       20       21 </v>
   <v type="int" >        8       10       11       13       19 </v>
   <v type="int" >        8       11       13       19       19 </v>
   <v type="int" >        4       13       19       19       20 </v>
   <v type="int" >        8       13       19       20       21 </v>
   <v type="int" >        4       10       11       12       19 </v>
   <v type="int" >        4       11       12       13       19 </v>
   <v type="int" >        8       12       13       19       20 </v>
   <v type="int" >        8       10       12       13       19 </v>
   <v type="int" >        4       12       13       14       19 </v>
   <v type="int" >        4       12       14       19       20 </v>
   <v type="int" >        4        3        4       10       13 </v>
   <v type="int" >        4        4       10       12       13 </v>
   <v type="int" >       12        4       12       13       14 </v>
   <v type="int" >       12        3        4        7       13 </v>
   <v type="int" >        8        4        7        7       13 </v>
   <v type="int" >       12        4        7       13       14 </v>
   <v type="int" >        4        4       12       14       14 </v>
   <v type="int" >        4       12       14       14       20 </v>
   <v type="int" >        4       14       14       20       22 </v>
   <v type="int" >        4       12       13       15       20 </v>
   <v type="int" >        4       12       14       15       20 </v>
   <v type="int" >        8       14       15       20       22 </v>
   <v type="int" >       12       13       15       20       21 </v>
   <v type="int" >       12       15       20       21       22 </v>
   <v type="int" >        4       15       20       22       22 </v>
   <v type="int" >        4       13       13       14       21 </v>
   <v type="int" >       12       13       14       15       21 </v>
   <v type="int" >       16       14       15       21       22 </v>
   <v type="int" >        8       13       14       20       21 </v>
   <v type="int" >        4       14       20       20       21 </v>
   <v type="int" >       12       14       20       21       22 </v>
   <v type="int" >        4       12       12       13       20 </v>
   <v type="int" >        8       12       13       14       20 </v>
   <v type="int" >        8       12       14       20       20 </v>
   <v type="int" >        8       12       12       14       20 </v>
   <v type="int" >        4       12       13       20       20 </v>
   <v type="int" >       16        3        4       12       14 </v>
   <v type="int" >        8        3       12       12       14 </v>
   <v type="int" >        8        3       12       13       14 </v>
   <v type="int" >       16        3        4        7       14 </v>
   <v type="int" >        4        3        6        7       14 </v>
   <v type="int" >        4        3        6       13       14 </v>
   <v type="int" >        8       14       15       15       22 </v>
   <v type="int" >        8       15       15       22       22 </v>
   <v type="int" >        8       15       21       22       22 </v>
   <v type="int" >       12       13       14       15       22 </v>
   <v type="int" >        4       13       15       15       22 </v>
   <v type="int" >        8       13       15       21       22 </v>
   <v type="int" >       12       13       14       20       22 </v>
   <v type="int" >        4       13       19       20       22 </v>
   <v type="int" >        4       13       19       21       22 </v>
   <v type="int" >        4       10       12       14       20 </v>
   <v type="int" >        4       10       13       14       20 </v>
   <v type="int" >        8       10       13       19       20 </v>
   <v type="int" >        8       10       12       13       20 </v>
   <v type="int" >        4       10       11       13       20 </v>
   <v type="int" >        4       10       11       19       20 </v>
   <v type="int" >        4        2        3       12       13 </v>
   <v type="int" >        4        2       10       12       13 </v>
   <v type="int" >        8        2       10       11       13 </v>
   <v type="int" >       12        2        3        6       13 </v>
   <v type="int" >        4        2        2        6       13 </v>
   <v type="int" >        4        2        2       11       13 </v>
   <v type="int" >        4       11       13       15       21 </v>
   <v type="int" >        8       11       13       19       21 </v>
   <v type="int" >        4       11       18       19       21 </v>
   <v type="int" >        4        8       10       13       19 </v>
   <v type="int" >        4        8       11       13       19 </v>
   <v type="int" >        8        8       11       18       19 </v>
   <v type="int" >        8        8       10       11       19 </v>
   <v type="int" >        4        8        8       11       19 </v>
   <v type="int" >        4        8        8       18       19 </v>
   <v type="int" >        4        1        2       10       11 </v>
   <v type="int" >        4        1        8       10       11 </v>
   <v type="int" >        8        1        8        8       11 </v>
   <v type="int" >        8        1        2        2       11 </v>
   <v type="int" >       12        1        2        8       11 </v>
   <v type="int" >        4        5        8       11       18 </v>
   <v type="int" >        4        5        8        8       18 </v>
   <v type="int" >        4        1        5        8       18 </v>
   <v type="int" >        4        5        5        8        8 </v>
   <v type="int" >       12        1        5        5        8 </v>
   <v type="int" >        6        1        1        5        5 </v>
   <v type="int" >        8        1        1        5        8 </v>
   <v type="int" >        4        1        1        2        8 </v>
   <v type="int" >        4        2        3        6       16 </v>
   <v type="int" >        4        3        7       16       17 </v>
   <v type="int" >       12        7       16       17       17 </v>
   <v type="int" >        8        7       17       17       17 </v>
   <v type="int" >       12        7        7        9       16 </v>
   <v type="int" >        4        6        6        7        7 </v>
   <v type="int" >       16        3        6        7       13 </v>
   <v type="int" >       12        6        7        7       13 </v>
   <v type="int" >        4        3        6        6       11 </v>
   <v type="int" >       12        3        6       11       13 </v>
   <v type="int" >       12        2        3       10       11 </v>
   <v type="int" >        4        3       10       11       19 </v>
   <v type="int" >        4        3       11       13       19 </v>
   <v type="int" >        4        2        8       10       18 </v>
   <v type="int" >        4        2       10       11       18 </v>
   <v type="int" >        4       10       18       19       19 </v>
   <v type="int" >        4        8        8       11       11 </v>
   <v type="int" >        4        8       10       11       11 </v>
   <v type="int" >        4       10       11       11       13 </v>
   <v type="int" >        4       11       11       13       19 </v>
   <v type="int" >        4        2        6        8       10 </v>
   <v type="int" >        4        6        8       10       11 </v>
   <v type="int" >       12        6       10       11       13 </v>
   <v type="int" >        8        2        3        6       10 </v>
   <v type="int" >        4        3        6        7       10 </v>
   <v type="int" >        4        6        7       10       13 </v>
   <v type="int" >        4       16       17       17       17 </v>
   <v type="int" >        4       17       17       17       17 </v>
   <v type="int" >        4        9       17       17       17 </v>
   <v type="int" >        8        7        7       15       17 </v>
   <v type="int" >        8        7        9       15       17 </v>
   <v type="int" >        4        6        7       13       16 </v>
   <v type="int" >        4        7        7       13       16 </v>
   <v type="int" >       12        7        7       13       15 </v>
   <v type="int" >        8        6        7       13       13 </v>
   <v type="int" >        4        7       13       13       21 </v>
   <v type="int" >        4        7       13       15       21 </v>
   <v type="int" >        4        6       11       13       19 </v>
   <v type="int" >        4        6       13       13       19 </v>
   <v type="int" >        4       13       19       19       23 </v>
   <v type="int" >        4       13       19       21       23 </v>
   <v type="int" >        4       11       18       19       19 </v>
   <v type="int" >        4       11       19       19       19 </v>
   <v type="int" >        4       19       19       19       23 </v>
   <v type="int" >        4       18       19       19       19 </v>
   <v type="int" >        4       19       19       19       21 </v>
   <v type="int" >        4       19       19       21       23 </v>
   <v type="int" >        4       11       13       18       19 </v>
   <v type="int" >        4       13       18       19       19 </v>
   <v type="int" >        8       13       19       19       21 </v>
   <v type="int" >       12       11       13       13       19 </v>
   <v type="int" >        4       13       13       15       19 </v>
   <v type="int" >        4       13       15       19       21 </v>
   <v type="int" >        4        6        7       11       13 </v>
   <v type="int" >        4        7       11       13       13 </v>
   <v type="int" >        8        7       13       13       15 </v>
   <v type="int" >        4        7        7        9       13 </v>
   <v type="int" >        4        7        9       13       15 </v>
   <v type="int" >        4        7        9       14       17 </v>
   <v type="int" >       12        7        9       14       15 </v>
   <v type="int" >        4        9       14       15       22 </v>
   <v type="int" >        4        7       13       15       20 </v>
   <v type="int" >        4        7       14       15       20 </v>
   <v type="int" >        4       15       20       21       24 </v>
   <v type="int" >        4       15       20       22       24 </v>
   <v type="int" >        4       13       19       21       21 </v>
   <v type="int" >        4       13       20       21       21 </v>
   <v type="int" >        4       20       21       21       24 </v>
   <v type="int" >        8       19       21       21       23 </v>
   <v type="int" >        8       21       21       23       24 </v>
   <v type="int" >        4       21       21       24       24 </v>
   <v type="int" >        4       19       19       20       23 </v>
   <v type="int" >       12       19       20       21       23 </v>
   <v type="int" >       12       20       21       23       24 </v>
   <v type="int" >        4       20       21       22       23 </v>
   <v type="int" >        4       20       22       23       24 </v>
   <v type="int" >        4       13       14       19       21 </v>
   <v type="int" >        4       14       19       20       21 </v>
   <v type="int" >        4       14       15       15       21 </v>
   <v type="int" >       16        7       13       14       15 </v>
   <v type="int" >        8        7       14       15       15 </v>
   <v type="int" >       16        7        7        9       15 </v>
   <v type="int" >        4        7        7       15       15 </v>
   <v type="int" >        4       14       20       22       22 </v>
   <v type="int" >        8       20       22       22       24 </v>
   <v type="int" >       16       22       22       24       25 </v>
   <v type="int" >       16       20       21       22       24 </v>
   <v type="int" >        8       21       22       24       24 </v>
   <v type="int" >        4       22       24       24       24 </v>
   <v type="int" >       16       22       24       24       25 </v>
   <v type="int" >        4       20       20       21       24 </v>
   <v type="int" >       12       20       22       24       24 </v>
   <v type="int" >        8       20       20       22       24 </v>
   <v type="int" >        4       20       21       24       24 </v>
   <v type="int" >        4       13       20       20       22 </v>
   <v type="int" >        8       13       20       21       22 </v>
   <v type="int" >        4       13       13       15       22 </v>
   <v type="int" >        4       13       13       21       22 </v>
   <v type="int" >        4        6        7       14       15 </v>
   <v type="int" >        4        6       13       14       15 </v>
   <v type="int" >        4        6       13       13       15 </v>
   <v type="int" >        4        6        7        7       15 </v>
   <v type="int" >        4        3        6        7       15 </v>
   <v type="int" >        4        3        6       13       15 </v>
   <v type="int" >        8       21       22       22       25 </v>
   <v type="int" >       12       21       22       24       25 </v>
   <v type="int" >        4       21       23       24       25 </v>
   <v type="int" >        4       19       20       22       24 </v>
   <v type="int" >        4       19       21       22       24 </v>
   <v type="int" >        8       19       21       23       24 </v>
   <v type="int" >        8       19       20       21       24 </v>
   <v type="int" >        4       19       19       21       24 </v>
   <v type="int" >        4       19       19       23       24 </v>
   <v type="int" >        4       11       13       20       21 </v>
   <v type="int" >        4       11       19       20       21 </v>
   <v type="int" >        4       11       19       19       21 </v>
   <v type="int" >        4       11       13       13       21 </v>
   <v type="int" >        4       10       11       13       21 </v>
   <v type="int" >        4       10       11       19       21 </v>
   <v type="int" >        4        2        6       13       13 </v>
   <v type="int" >        4        2       11       13       13 </v>
   <v type="int" >       12        2        3       10       13 </v>
   <v type="int" >        4        2       10       10       13 </v>
   <v type="int" >        4       18       19       21       23 </v>
   <v type="int" >        4       18       19       19       23 </v>
   <v type="int" >        4       11       18       19       23 </v>
   <v type="int" >        4        8       11       19       19 </v>
   <v type="int" >        4        8       18       19       19 </v>
   <v type="int" >        4        2        8       10       19 </v>
   <v type="int" >        4        2        8       11       19 </v>
   <v type="int" >       16        2        8       10       11 </v>
   <v type="int" >        4        8        8       10       11 </v>
   <v type="int" >       12        2        8        8       10 </v>
   <v type="int" >        8        2        8       10       10 </v>
   <v type="int" >        4        8       10       10       11 </v>
   <v type="int" >        4        1        8       11       18 </v>
   <v type="int" >        4        2        8        8        8 </v>
   <v type="int" >        8        2        2        8       10 </v>
   <v type="int" >        4        2        2        3       10 </v>
   <v type="int" >        4        3        4        7       17 </v>
   <v type="int" >        4        4        7       16       17 </v>
   <v type="int" >        4        7        7        7        9 </v>
   <v type="int" >        4        4        7        7       14 </v>
   <v type="int" >        4        7        7        7       14 </v>
   <v type="int" >       12        3        4       12       13 </v>
   <v type="int" >        4        4       12       13       20 </v>
   <v type="int" >        4        4       13       14       20 </v>
   <v type="int" >        4        3       10       12       19 </v>
   <v type="int" >        4        3       12       13       19 </v>
   <v type="int" >        4       12       13       19       21 </v>
   <v type="int" >        4       12       19       20       21 </v>
   <v type="int" >        4       10       13       19       19 </v>
   <v type="int" >        8       13       13       19       20 </v>
   <v type="int" >        4       10       11       13       13 </v>
   <v type="int" >        4       10       12       13       13 </v>
   <v type="int" >        4       12       13       13       14 </v>
   <v type="int" >        4       13       13       14       20 </v>
   <v type="int" >        4        3        7       10       12 </v>
   <v type="int" >        4        7       10       12       13 </v>
   <v type="int" >        8        7       12       13       14 </v>
   <v type="int" >        8        3        4        7       12 </v>
   <v type="int" >        4        7        7       12       14 </v>
   <v type="int" >        4        7        9       15       16 </v>
   <v type="int" >       12        7        9       15       15 </v>
   <v type="int" >        8        7        7       14       15 </v>
   <v type="int" >        4        7       14       15       22 </v>
   <v type="int" >        4        7       15       15       22 </v>
   <v type="int" >        4        7       13       14       21 </v>
   <v type="int" >        4        7       14       15       21 </v>
   <v type="int" >        4       14       20       21       24 </v>
   <v type="int" >        4       14       21       22       24 </v>
   <v type="int" >        4       13       19       20       23 </v>
   <v type="int" >        4       13       20       21       23 </v>
   <v type="int" >        4       20       23       24       24 </v>
   <v type="int" >        4       19       19       21       21 </v>
   <v type="int" >        4       19       20       21       21 </v>
   <v type="int" >        4       20       21       21       22 </v>
   <v type="int" >        4       21       21       22       24 </v>
   <v type="int" >        4       13       15       19       20 </v>
   <v type="int" >        4       15       19       20       21 </v>
   <v type="int" >        8       13       14       15       20 </v>
   <v type="int" >        4       14       15       15       20 </v>
   <v type="int" >        4       15       15       20       22 </v>
   <v type="int" >        4        7        9       13       14 </v>
   <v type="int" >        4        9       13       14       15 </v>
   <v type="int" >        8        9       14       15       15 </v>
   <v type="int" >        8        7        7        9       14 </v>
   <v type="int" >        4        9       15       15       22 </v>
   <v type="int" >        4       15       22       22       25 </v>
   <v type="int" >        4       15       21       22       24 </v>
   <v type="int" >        4       15       22       22       24 </v>
   <v type="int" >        8       22       24       24       26 </v>
   <v type="int" >        8       22       24       25       26 </v>
   <v type="int" >        4       21       23       24       24 </v>
   <v type="int" >        4       21       24       24       24 </v>
   <v type="int" >        8       24       24       24       26 </v>
   <v type="int" >        4       23       24       24       24 </v>
   <v type="int" >        4       24       24       24       25 </v>
   <v type="int" >       20       24       24       25       26 </v>
   <v type="int" >        4       21       22       23       24 </v>
   <v type="int" >        4       22       23       24       24 </v>
   <v type="int" >       12       21       22       22       24 </v>
   <v type="int" >        4       22       22       22       24 </v>
   <v type="int" >        4       15       15       21       22 </v>
   <v type="int" >        4       15       22       22       22 </v>
   <v type="int" >        4       15       15       15       22 </v>
   <v type="int" >        4       14       15       22       22 </v>
   <v type="int" >        4        7       15       15       15 </v>
   <v type="int" >        4        4        7        7       15 </v>
   <v type="int" >        4        4        7       14       15 </v>
   <v type="int" >        4       22       24       25       25 </v>
   <v type="int" >        8       24       25       25       26 </v>
   <v type="int" >        6       25       25       26       26 </v>
   <v type="int" >       12       24       25       26       26 </v>
   <v type="int" >        4       24       24       26       26 </v>
   <v type="int" >        8       21       24       24       25 </v>
   <v type="int" >        4       20       21       22       25 </v>
   <v type="int" >        4       20       21       24       25 </v>
   <v type="int" >        4       13       15       22       22 </v>
   <v type="int" >        4       13       21       22       22 </v>
   <v type="int" >        4       12       13       14       22 </v>
   <v type="int" >        4       12       13       20       22 </v>
   <v type="int" >        4        3        7       14       15 </v>
   <v type="int" >        4        3       13       14       15 </v>
   <v type="int" >        4       23       24       25       26 </v>
   <v type="int" >        4       23       24       24       26 </v>
   <v type="int" >        4       21       23       24       26 </v>
   <v type="int" >        4       19       21       24       24 </v>
   <v type="int" >        4       19       23       24       24 </v>
   <v type="int" >        4       13       19       20       24 </v>
   <v type="int" >        4       13       19       21       24 </v>
   <v type="int" >        4       10       13       20       21 </v>
   <v type="int" >        4       10       19       20       21 </v>
   <v type="int" >        4        3       10       12       20 </v>
   <v type="int" >        4        3       10       13       20 </v>
   <v type="int" >        8        3       10       12       13 </v>
   <v type="int" >        4       10       10       12       13 </v>
   <v type="int" >        8        3       10       10       12 </v>
   <v type="int" >        8        3       10       12       12 </v>
   <v type="int" >        4       10       12       12       13 </v>
   <v type="int" >        4       11       19       21       23 </v>
   <v type="int" >        4        6       11       13       21 </v>
   <v type="int" >        4        2       10       13       19 </v>
   <v type="int" >        4        2       11       13       19 </v>
   <v type="int" >        8        2        6       11       13 </v>
   <v type="int" >        4        2        6        6       13 </v>
   <v type="int" >        4        3       10       10       11 </v>
   <v type="int" >        4        3       11       13       13 </v>
   <v type="int" >        4        2        2        6       10 </v>
   <v type="int" >        4        6       10       12       13 </v>
   <v type="int" >        4        3        6       10       12 </v>
   <v type="int" >        4        2        3        3       10 </v>
   <v type="int" >        4        3        3       10       12 </v>
   <v type="int" >        4        3        3        4       12 </v>
   <v type="int" >        4        3        4        7       16 </v>
   <v type="int" >        4        6        7        7        7 </v>
   <v type="int" >        4        6        6        7       13 </v>
   <v type="int" >        8        3        7        7       14 </v>
   <v type="int" >        8        3        7       13       14 </v>
   <v type="int" >        4        3       12       14       20 </v>
   <v type="int" >        4        3       13       14       20 </v>
   <v type="int" >        4        4       12       12       20 </v>
   <v type="int" >        4        4       12       14       20 </v>
   <v type="int" >        4       12       14       20       22 </v>
   <v type="int" >        4       12       20       20       22 </v>
   <v type="int" >        4       12       13       14       21 </v>
   <v type="int" >        4       12       14       20       21 </v>
   <v type="int" >        4       14       21       22       22 </v>
   <v type="int" >        4       13       13       15       20 </v>
   <v type="int" >        4       14       15       20       20 </v>
   <v type="int" >        4       15       20       20       22 </v>
   <v type="int" >        4       12       13       14       14 </v>
   <v type="int" >        4       13       14       14       20 </v>
   <v type="int" >        2       14       14       20       20 </v>
   <v type="int" >        2       12       12       14       14 </v>
   <v type="int" >        8        4        7       12       12 </v>
   <v type="int" >        4        7       12       12       14 </v>
   <v type="int" >        4        3        6        7       12 </v>
   <v type="int" >        4        6        7       12       13 </v>
   <v type="int" >        4        6        7       15       16 </v>
   <v type="int" >        8        6        7       13       15 </v>
   <v type="int" >        4        6       13       15       21 </v>
   <v type="int" >        4        7       13       14       22 </v>
   <v type="int" >        4        7       13       15       22 </v>
   <v type="int" >        4       13       20       22       24 </v>
   <v type="int" >        4       13       21       22       24 </v>
   <v type="int" >        4       14       20       20       24 </v>
   <v type="int" >        4       14       20       22       24 </v>
   <v type="int" >        4       20       22       24       25 </v>
   <v type="int" >        4       20       24       24       25 </v>
   <v type="int" >        6       22       22       24       24 </v>
   <v type="int" >        4       20       21       22       22 </v>
   <v type="int" >        2       20       20       22       22 </v>
   <v type="int" >        4        7        7       13       14 </v>
   <v type="int" >        4        3        7       13       13 </v>
   <v type="int" >        4       15       21       22       25 </v>
   <v type="int" >        4       21       24       25       26 </v>
   <v type="int" >        4       24       26       26       26 </v>
   <v type="int" >        6       24       24       25       25 </v>
   <v type="int" >        4        4        7       13       15 </v>
   <v type="int" >        4        4       13       14       15 </v>
   <v type="int" >        8        4       12       12       13 </v>
   <v type="int" >        4       25       26       26       26 </v>
   <v type="int" >        2       26       26       26       26 </v>
   <v type="int" >        4        4       12       12       14 </v>
   <v type="int" >        4       12       12       12       14 </v>
   <v type="int" >        8        4       12       12       12 </v>
   <v type="int" >        4        3        4        4       12 </v>
   <v type="int" >        4        4        4       12       12 </v>
   <v type="int" >        4        1        5        8       11 </v>
   <v type="int" >        4        1        2        6       11 </v>
   <v type="int" >        4        2        8       10       13 </v>
   <v type="int" >        4        2        8       11       13 </v>
   <v type="int" >        4        2        3        7       13 </v>
   <v type="int" >        4        2        6        7       13 </v>
   <v type="int" >        4        3       10       12       14 </v>
   <v type="int" >        4        3       10       13       14 </v>
   <v type="int" >        4        3        4        6       13 </v>
   <v type="int" >        4        4        6        7       13 </v>
   <v type="int" >        4        3       10       11       12 </v>
   <v type="int" >        4        3       11       12       13 </v>
   <v type="int" >        4        2        2        3       11 </v>
   <v type="int" >        6        2        2        8        8 </v>
   <v type="int" >        6        1        1        8        8 </v>
   <v type="int" >        4        5        5        5        8 </v>
   <v type="int" >        4        6       11       13       15 </v>
   <v type="int" >        4        6        7        9       15 </v>
   <v type="int" >        4        7       13       15       15 </v>
   <v type="int" >        4        7        7        7       15 </v>
   <v type="int" >        4        7       13       13       14 </v>
   <v type="int" >        4        3        7        7       13 </v>
   <v type="int" >        4        6       10       13       13 </v>
   <v type="int" >        4        2        6       10       10 </v>
   <v type="int" >        4        3        6       10       10 </v>
   <v type="int" >        4        2        2       10       11 </v>
   <v type="int" >        2        2        2       10       10 </v>
   <v type="int" >        4        1        8        8       10 </v>
   <v type="int" >        4        1        2        8       10 </v>
   <v type="int" >        4        2        3        8       10 </v>
   <v type="int" >        4        3        8       10       10 </v>
   <v type="int" >        4        4        7        9       14 </v>
   <v type="int" >        4        7       12       13       15 </v>
   <v type="int" >        4        7       12       14       15 </v>
   <v type="int" >        4        3        7       12       12 </v>
   <v type="int" >        4        3        3       10       13 </v>
   <v type="int" >        4        3        3       12       13 </v>
   <v type="int" >        2        3        3       12       12 </v>
   <v type="int" >        2        3        3       10       10 </v>
   <v type="int" >        4        2       10       10       12 </v>
   <v type="int" >        4        2        3       10       12 </v>
   <v type="int" >        4        3        4       10       12 </v>
   <v type="int" >        4        4       10       12       12 </v>
   <v type="int" >        4        4        4       12       14 </v>
   <v type="int" >        4        3       12       12       12 </v>
   <v type="int" >        4        3        4       12       12 </v>
   <v type="int" >        4        1        5        5        5 </v>
   <v type="int" >        2        5        5        5        5 </v>
  </varray>
  <i name="volumeweight">      0.00032552 </i>
 </kpoints>
 <parameters>
  <separator name="general" >
   <i type="string" name="SYSTEM">Fe BCC</i>
   <i type="logical" name="LCOMPAT"> F  </i>
  </separator>
  <separator name="electronic" >
   <i type="string" name="PREC">accura</i>
   <i name="ENMAX">    400.00000000</i>
   <i name="ENAUG">    511.36800000</i>
   <i name="EDIFF">      0.00000100</i>
   <i type="int" name="IALGO">    38</i>
   <i type="int" name="IWAVPR">    10</i>
   <i type="int" name="NBANDS">    12</i>
   <i name="NELECT">      8.00000000</i>
   <i type="int" name="TURBO">     0</i>
   <i type="int" name="IRESTART">     0</i>
   <i type="int" name="NREBOOT">     0</i>
   <i type="int" name="NMIN">     0</i>
   <i name="EREF">      0.00000000</i>
   <separator name="electronic smearing" >
    <i type="int" name="ISMEAR">    -5</i>
    <i name="SIGMA">      0.20000000</i>
    <i name="KSPACING">      0.50000000</i>
    <i type="logical" name="KGAMMA"> T  </i>
   </separator>
   <separator name="electronic projectors" >
    <i type="logical" name="LREAL"> F  </i>
    <v name="ROPT">      0.00000000</v>
    <i type="int" name="LMAXPAW">  -100</i>
    <i type="int" name="LMAXMIX">     2</i>
    <i type="logical" name="NLSPLINE"> F  </i>
   </separator>
   <separator name="electronic startup" >
    <i type="int" name="ISTART">     0</i>
    <i type="int" name="ICHARG">     2</i>
    <i type="int" name="INIWAV">     1</i>
   </separator>
   <separator name="electronic spin" >
    <i type="int" name="ISPIN">     2</i>
    <i type="logical" name="LNONCOLLINEAR"> F  </i>
    <v name="MAGMOM">      4.00000000</v>
    <i name="NUPDOWN">     -1.00000000</i>
    <i type="logical" name="LSORBIT"> F  </i>
    <v name="SAXIS">      0.00000000      0.00000000      1.00000000</v>
    <i type="logical" name="LSPIRAL"> F  </i>
    <v name="QSPIRAL">      0.00000000      0.00000000      0.00000000</v>
    <i type="logical" name="LZEROZ"> F  </i>
   </separator>
   <separator name="electronic exchange-correlation" >
    <i type="logical" name="LASPH"> F  </i>
    <i type="logical" name="LMETAGGA"> F  </i>
   </separator>
   <separator name="electronic convergence" >
    <i type="int" name="NELM">    60</i>
    <i type="int" name="NELMDL">    -5</i>
    <i type="int" name="NELMIN">     2</i>
    <i name="ENINI">    400.00000000</i>
    <separator name="electronic convergence detail" >
     <i type="logical" name="LDIAG"> T  </i>
     <i type="logical" name="LSUBROT"> F  </i>
     <i name="WEIMIN">      0.00000000</i>
     <i name="EBREAK">      0.00000002</i>
     <i name="DEPER">      0.30000000</i>
     <i type="int" name="NRMM">     4</i>
     <i name="TIME">      0.40000000</i>
    </separator>
   </separator>
   <separator name="electronic mixer" >
    <i name="AMIX">      0.40000000</i>
    <i name="BMIX">      1.00000000</i>
    <i name="AMIN">      0.10000000</i>
    <i name="AMIX_MAG">      1.60000000</i>
    <i name="BMIX_MAG">      1.00000000</i>
    <separator name="electronic mixer details" >
     <i type="int" name="IMIX">     4</i>
     <i type="logical" name="MIXFIRST"> F  </i>
     <i type="int" name="MAXMIX">   -45</i>
     <i name="WC">    100.00000000</i>
     <i type="int" name="INIMIX">     1</i>
     <i type="int" name="MIXPRE">     1</i>
     <i type="int" name="MREMOVE">     5</i>
    </separator>
   </separator>
   <separator name="electronic dipolcorrection" >
    <i type="logical" name="LDIPOL"> F  </i>
    <i type="logical" name="LMONO"> F  </i>
    <i type="int" name="IDIPOL">     0</i>
    <i name="EPSILON">      1.00000000</i>
    <v name="DIPOL">   -100.00000000   -100.00000000   -100.00000000</v>
    <i name="EFIELD">      0.00000000</i>
   </separator>
  </separator>
  <separator name="grids" >
   <i type="int" name="NGX">    16</i>
   <i type="int" name="NGY">    16</i>
   <i type="int" name="NGZ">    16</i>
   <i type="int" name="NGXF">    32</i>
   <i type="int" name="NGYF">    32</i>
   <i type="int" name="NGZF">    32</i>
   <i type="logical" name="ADDGRID"> F  </i>
  </separator>
  <separator name="ionic" >
   <i type="int" name="NSW">     0</i>
   <i type="int" name="IBRION">    -1</i>
   <i type="int" name="ISIF">     2</i>
   <i name="PSTRESS">      0.00000000</i>
   <i name="EDIFFG">      0.00001000</i>
   <i type="int" name="NFREE">     0</i>
   <i name="POTIM">      0.50000000</i>
   <i name="SMASS">     -3.00000000</i>
   <i name="SCALEE">      1.00000000</i>
  </separator>
  <separator name="ionic md" >
   <i name="TEBEG">      0.00010000</i>
   <i name="TEEND">      0.00010000</i>
   <i type="int" name="NBLOCK">     1</i>
   <i type="int" name="KBLOCK">     1</i>
   <i type="int" name="NPACO">   256</i>
   <i name="APACO">     16.00000000</i>
  </separator>
  <separator name="symmetry" >
   <i type="int" name="ISYM">     2</i>
   <i name="SYMPREC">      0.00001000</i>
  </separator>
  <separator name="dos" >
   <i type="logical" name="LORBIT"> F  </i>
   <v name="RWIGS">     -1.00000000</v>
   <i type="int" name="NEDOS">   301</i>
   <i name="EMIN">     10.00000000</i>
   <i name="EMAX">    -10.00000000</i>
   <i name="EFERMI">      0.00000000</i>
  </separator>
  <separator name="writing" >
   <i type="int" name="NWRITE">     2</i>
   <i type="logical" name="LWAVE"> T  </i>
   <i type="logical" name="LCHARG"> T  </i>
   <i type="logical" name="LPARD"> F  </i>
   <i type="logical" name="LVTOT"> F  </i>
   <i type="logical" name="LVHAR"> F  </i>
   <i type="logical" name="LELF"> F  </i>
   <i type="logical" name="LOPTICS"> F  </i>
   <v name="STM">      0.00000000      0.00000000      0.00000000      0.00000000      0.00000000      0.00000000      0.00000000</v>
  </separator>
  <separator name="performance" >
   <i type="int" name="NPAR">     4</i>
   <i type="int" name="NSIM">     4</i>
   <i type="int" name="NBLK">    -1</i>
   <i type="logical" name="LPLANE"> T  </i>
   <i type="logical" name="LSCALAPACK"> F  </i>
   <i type="logical" name="LSCAAWARE"> F  </i>
   <i type="logical" name="LSCALU"> F  </i>
   <i type="logical" name="LASYNC"> F  </i>
   <i type="logical" name="LORBITALREAL"> F  </i>
  </separator>
  <separator name="miscellaneous" >
   <i type="int" name="IDIOT">     3</i>
   <i type="logical" name="LMUSIC"> F  </i>
   <v name="POMASS">     55.84700000</v>
   <v name="DARWINR">      0.00000000</v>
   <v name="DARWINV">      1.00000000</v>
   <i type="logical" name="LCORR"> T  </i>
  </separator>
  <i type="logical" name="GGA_COMPAT"> T  </i>
  <i type="logical" name="LBERRY"> F  </i>
  <i type="int" name="ICORELEVEL">     0</i>
  <i type="logical" name="LDAU"> F  </i>
  <i type="int" name="I_CONSTRAINED_M">     0</i>
  <separator name="electronic exchange-correlation" >
   <i type="string" name="GGA">--</i>
   <i type="int" name="VOSKOWN">     0</i>
   <i type="logical" name="LHFCALC"> F  </i>
   <i type="string" name="PRECFOCK"></i>
   <i type="logical" name="LSYMGRAD"> F  </i>
   <i type="logical" name="LHFONE"> F  </i>
   <i type="logical" name="LRHFCALC"> F  </i>
   <i type="logical" name="LTHOMAS"> F  </i>
   <i type="logical" name="LMODELHF"> F  </i>
   <i name="ENCUT4O">     -1.00000000</i>
   <i type="int" name="EXXOEP">     0</i>
   <i type="int" name="FOURORBIT">     0</i>
   <i name="AEXX">      0.00000000</i>
   <i name="HFALPHA">      0.00000000</i>
   <i name="MCALPHA">      0.00000000</i>
   <i name="ALDAX">      1.00000000</i>
   <i name="AGGAX">      1.00000000</i>
   <i name="ALDAC">      1.00000000</i>
   <i name="AGGAC">      1.00000000</i>
   <i type="int" name="NKREDX">     1</i>
   <i type="int" name="NKREDY">     1</i>
   <i type="int" name="NKREDZ">     1</i>
   <i type="logical" name="SHIFTRED"> F  </i>
   <i type="logical" name="ODDONLY"> F  </i>
   <i type="logical" name="EVENONLY"> F  </i>
   <i type="int" name="LMAXFOCK">     0</i>
   <i type="int" name="NMAXFOCKAE">     0</i>
   <i type="logical" name="LFOCKAEDFT"> F  </i>
   <i name="HFSCREEN">      0.00000000</i>
   <i name="HFSCREENC">      0.00000000</i>
   <i type="int" name="NBANDSGWLOW">     0</i>
  </separator>
  <separator name="vdW DFT" >
   <i type="logical" name="LUSE_VDW"> F  </i>
   <i name="Zab_VDW">     -0.84910000</i>
   <i name="PARAM1">      0.12340000</i>
   <i name="PARAM2">      1.00000000</i>
   <i name="PARAM3">      0.00000000</i>
  </separator>
  <separator name="model GW" >
   <i type="int" name="MODEL_GW">     0</i>
   <i name="MODEL_EPS0">      6.76357969</i>
   <i name="MODEL_ALPHA">      1.00000000</i>
  </separator>
  <separator name="linear response parameters" >
   <i type="logical" name="LEPSILON"> F  </i>
   <i type="logical" name="LRPA"> F  </i>
   <i type="logical" name="LNABLA"> F  </i>
   <i type="logical" name="LVEL"> F  </i>
   <i type="int" name="KINTER">     0</i>
   <i name="CSHIFT">      0.10000000</i>
   <i name="OMEGAMAX">     -1.00000000</i>
   <i name="DEG_THRESHOLD">      0.00200000</i>
  </separator>
  <separator name="orbital magnetization" >
   <i type="logical" name="NUCIND"> F  </i>
   <v name="MAGPOS">      0.00000000      0.00000000      0.00000000</v>
   <i type="logical" name="LNICSALL"> T  </i>
   <i type="logical" name="ORBITALMAG"> F  </i>
   <i type="logical" name="LMAGBLOCH"> F  </i>
   <i type="logical" name="LCHIMAG"> F  </i>
   <i type="logical" name="LGAUGE"> T  </i>
   <i type="int" name="MAGATOM">     0</i>
   <v name="MAGDIPOL">      0.00000000      0.00000000      0.00000000</v>
   <v name="AVECCONST">      0.00000000      0.00000000      0.00000000</v>
  </separator>
  <separator name="response functions" >
   <i type="logical" name="LADDER"> F  </i>
   <i type="logical" name="LFXC"> F  </i>
   <i type="logical" name="LHARTREE"> T  </i>
   <i type="int" name="IBSE">     0</i>
   <v type="int" name="KPOINT">    -1     0     0     0</v>
   <i type="logical" name="LTCTE"> F  </i>
   <i type="logical" name="LTETE"> F  </i>
   <i type="logical" name="LTRIPLET"> F  </i>
   <i type="logical" name="LFXCEPS"> F  </i>
   <i type="logical" name="LFXHEG"> F  </i>
   <i type="int" name="NATURALO">     0</i>
   <i type="logical" name="L2ORDER"> F  </i>
   <i type="logical" name="LUSEW"> F  </i>
   <i name="ENCUTGW">     -2.00000000</i>
   <i name="ENCUTGWSOFT">     -2.00000000</i>
   <i name="ENCUTLF">     -1.00000000</i>
   <i type="int" name="LMAXMP2">    -1</i>
   <i name="SCISSOR">      0.00000000</i>
   <i type="int" name="NOMEGA">     0</i>
   <i type="int" name="NOMEGAR">     0</i>
   <i type="int" name="NBANDSGW">    -1</i>
   <i type="int" name="NBANDSO">    -1</i>
   <i type="int" name="NBANDSV">    -1</i>
   <i type="int" name="NELM">     1</i>
   <i type="int" name="NELMHF">     1</i>
   <i type="int" name="DIM">     3</i>
   <i type="int" name="ANTIRES">     0</i>
   <i name="OMEGAMAX">    -30.00000000</i>
   <i name="OMEGAMIN">    -30.00000000</i>
   <i name="OMEGATL">   -200.00000000</i>
   <i type="int" name="OMEGAGRID">     0</i>
   <i name="CSHIFT">     -0.10000000</i>
   <i type="logical" name="SELFENERGY"> F  </i>
   <i type="logical" name="LSPECTRAL"> F  </i>
   <i type="logical" name="LSPECTRALGW"> F  </i>
   <i type="logical" name="LSINGLES"> F  </i>
   <i type="logical" name="LFERMIGW"> F  </i>
   <i type="logical" name="ODDONLYGW"> F  </i>
   <i type="logical" name="EVENONLYGW"> F  </i>
   <i type="int" name="NKREDLFX">     1</i>
   <i type="int" name="NKREDLFY">     1</i>
   <i type="int" name="NKREDLFZ">     1</i>
   <i type="int" name="MAXMEM">  1800</i>
   <i type="int" name="TELESCOPE">     0</i>
   <i type="int" name="TAUPAR">     1</i>
   <i type="int" name="OMEGAPAR">    -1</i>
   <i name="LAMBDA">      1.00000000</i>
  </separator>
  <separator name="External order field" >
   <i name="OFIELD_KAPPA">      0.00000000</i>
   <v name="OFIELD_K">      0.00000000      0.00000000      0.00000000</v>
   <i name="OFIELD_Q6_NEAR">      0.00000000</i>
   <i name="OFIELD_Q6_FAR">      0.00000000</i>
   <i name="OFIELD_A">      0.00000000</i>
  </separator>
 </parameters>
 <atominfo>
  <atoms>       1 </atoms>
  <types>       1 </types>
  <array name="atoms" >
   <dimension dim="1">ion</dimension>
   <field type="string">element</field>
   <field type="int">atomtype</field>
   <set>
    <rc><c>Fe</c><c>   1</c></rc>
   </set>
  </array>
  <array name="atomtypes" >
   <dimension dim="1">type</dimension>
   <field type="int">atomspertype</field>
   <field type="string">element</field>
   <field>mass</field>
   <field>valence</field>
   <field type="string">pseudopotential</field>
   <set>
    <rc><c>   1</c><c>Fe</c><c>     55.84700000</c><c>      8.00000000</c><c>  PAW_PBE Fe 06Sep2000                  </c></rc>
   </set>
  </array>
 </atominfo>
 <structure name="initialpos" >
  <crystal>
   <varray name="basis" >
    <v>      -1.41250000       1.41250000       1.41250000 </v>
    <v>       1.41250000      -1.41250000       1.41250000 </v>
    <v>       1.41250000       1.41250000      -1.41250000 </v>
   </varray>
   <i name="volume">     11.27263281 </i>
   <varray name="rec_basis" >
    <v>       0.00000000       0.35398230       0.35398230 </v>
    <v>       0.35398230       0.00000000       0.35398230 </v>
    <v>       0.35398230       0.35398230       0.00000000 </v>
   </varray>
  </crystal>
  <varray name="positions" >
   <v>       0.00000000       0.00000000       0.00000000 </v>
  </varray>
 </structure>
 <calculation>
  <scstep>
   <time name="dav">    0.78    0.44</time>
   <time name="total">    0.99    0.55</time>
   <energy>
    <i name="alphaZ">     61.31112150 </i>
    <i name="ewald">   -593.60495141 </i>
    <i name="hartreedc">   -110.94326599 </i>
    <i name="XCdc">      6.03089436 </i>
    <i name="pawpsdc">    552.89180568 </i>
    <i name="pawaedc">   -560.64780826 </i>
    <i name="eentropy">      0.00000000 </i>
    <i name="bandstr">     68.21301571 </i>
    <i name="atom">    594.30652615 </i>
    <i name="e_fr_energy">     17.55733773 </i>
    <i name="e_wo_entrp">     17.55733773 </i>
    <i name="e_0_energy">     17.55733773 </i>
   </energy>
  </scstep>
  <scstep>
   <time name="dav">    0.70    0.35</time>
   <time name="total">    0.82    0.41</time>
   <energy>
    <i name="e_fr_energy">     -8.02711676 </i>
    <i name="e_wo_entrp">     -8.02711676 </i>
    <i name="e_0_energy">     -8.02711676 </i>
   </energy>
  </scstep>
  <scstep>
   <time name="dav">    0.77    0.38</time>
   <time name="total">    0.88    0.44</time>
   <energy>
    <i name="e_fr_energy">     -8.66363195 </i>
    <i name="e_wo_entrp">     -8.66363195 </i>
    <i name="e_0_energy">     -8.66363195 </i>
   </energy>
  </scstep>
  <scstep>
   <time name="dav">    0.74    0.37</time>
   <time name="total">    0.84    0.42</time>
   <energy>
    <i name="e_fr_energy">     -8.66584880 </i>
    <i name="e_wo_entrp">     -8.66584880 </i>
    <i name="e_0_energy">     -8.66584880 </i>
   </energy>
  </scstep>
  <scstep>
   <time name="dav">    1.17    0.58</time>
   <time name="total">    1.35    0.67</time>
   <energy>
    <i name="e_fr_energy">     -8.66586131 </i>
    <i name="e_wo_entrp">     -8.66586131 </i>
    <i name="e_0_energy">     -8.66586131 </i>
   </energy>
  </scstep>
  <scstep>
   <time name="dav">    0.72    0.36</time>
   <time name="total">    0.95    0.48</time>
   <energy>
    <i name="e_fr_energy">     -8.28157253 </i>
    <i name="e_wo_entrp">     -8.28157253 </i>
    <i name="e_0_energy">     -8.28157253 </i>
   </energy>
  </scstep>
  <scstep>
   <time name="dav">    0.75    0.38</time>
   <time name="total">    0.97    0.49</time>
   <energy>
    <i name="e_fr_energy">     -8.25195691 </i>
    <i name="e_wo_entrp">     -8.25195691 </i>
    <i name="e_0_energy">     -8.25195691 </i>
   </energy>
  </scstep>
  <scstep>
   <time name="dav">    0.75    0.38</time>
   <time name="total">    0.97    0.49</time>
   <energy>
    <i name="e_fr_energy">     -8.24318971 </i>
    <i name="e_wo_entrp">     -8.24318971 </i>
    <i name="e_0_energy">     -8.24318971 </i>
   </energy>
  </scstep>
  <scstep>
   <time name="dav">    1.23    0.61</time>
   <time name="total">    1.46    0.73</time>
   <energy>
    <i name="e_fr_energy">     -8.23644670 </i>
    <i name="e_wo_entrp">     -8.23644670 </i>
    <i name="e_0_energy">     -8.23644670 </i>
   </energy>
  </scstep>
  <scstep>
   <time name="dav">    0.73    0.37</time>
   <time name="total">    0.96    0.48</time>
   <energy>
    <i name="e_fr_energy">     -8.23645220 </i>
    <i name="e_wo_entrp">     -8.23645220 </i>
    <i name="e_0_energy">     -8.23645220 </i>
   </energy>
  </scstep>
  <scstep>
   <time name="dav">    1.30    0.67</time>
   <time name="total">    1.89    1.53</time>
   <energy>
    <i name="e_fr_energy">     -8.23646700 </i>
    <i name="e_wo_entrp">     -8.23646700 </i>
    <i name="e_0_energy">     -8.23646700 </i>
   </energy>
  </scstep>
  <scstep>
   <time name="dav">    0.69    0.34</time>
   <time name="total">    0.90    0.44</time>
   <energy>
    <i name="e_fr_energy">     -8.23647433 </i>
    <i name="e_wo_entrp">     -8.23647433 </i>
    <i name="e_0_energy">     -8.23647433 </i>
   </energy>
  </scstep>
  <scstep>
   <time name="dav">    0.44    0.22</time>
   <time name="total">    0.65    0.32</time>
   <energy>
    <i name="e_fr_energy">     -8.23646415 </i>
    <i name="e_wo_entrp">     -8.23646415 </i>
    <i name="e_0_energy">     -8.23646415 </i>
   </energy>
  </scstep>
  <scstep>
   <time name="dav">    0.43    0.22</time>
   <time name="total">    0.63    0.31</time>
   <energy>
    <i name="e_fr_energy">     -8.23646625 </i>
    <i name="e_wo_entrp">     -8.23646625 </i>
    <i name="e_0_energy">     -8.23646625 </i>
   </energy>
  </scstep>
  <scstep>
   <time name="dav">    0.42    0.21</time>
   <time name="total">    0.58    0.29</time>
   <energy>
    <i name="alphaZ">     61.31112150 </i>
    <i name="ewald">   -593.60495141 </i>
    <i name="hartreedc">    -94.45004385 </i>
    <i name="XCdc">      4.33419928 </i>
    <i name="pawpsdc">    724.21115108 </i>
    <i name="pawaedc">   -733.31795640 </i>
    <i name="eentropy">      0.00000000 </i>
    <i name="bandstr">     28.97348692 </i>
    <i name="atom">    594.30652615 </i>
    <i name="e_fr_energy">     -8.23646675 </i>
    <i name="e_wo_entrp">     -8.23646675 </i>
    <i name="e_0_energy">     -8.23646675 </i>
   </energy>
  </scstep>
  <structure>
   <crystal>
    <varray name="basis" >
     <v>      -1.41250000       1.41250000       1.41250000 </v>
     <v>       1.41250000      -1.41250000       1.41250000 </v>
     <v>       1.41250000       1.41250000      -1.41250000 </v>
    </varray>
    <i name="volume">     11.27263281 </i>
    <varray name="rec_basis" >
     <v>       0.00000000       0.35398230       0.35398230 </v>
     <v>       0.35398230       0.00000000       0.35398230 </v>
     <v>       0.35398230       0.35398230       0.00000000 </v>
    </varray>
   </crystal>
   <varray name="positions" >
    <v>       0.00000000       0.00000000       0.00000000 </v>
   </varray>
  </structure>
  <varray name="forces" >
   <v>       0.00000000      -0.00000000       0.00000000 </v>
  </varray>
  <varray name="stress" >
   <v>       9.38392145       0.00000000       0.00000000 </v>
   <v>      -0.00000000       9.38392145       0.00000000 </v>
   <v>      -0.00000000      -0.00000000       9.38392145 </v>
  </varray>
  <energy>
   <i name="e_fr_energy">     -8.23646675 </i>
   <i name="e_wo_entrp">     -8.23646675 </i>
   <i name="e_0_energy">      0.00000000 </i>
  </energy>
  <time name="totalsc">   15.50    8.43</time>
  <eigenvalues>
   <array>
    <dimension dim="1">band</dimension>
    <dimension dim="2">kpoint</dimension>
    <dimension dim="3">spin</dimension>
    <field>eigene</field>
    <field>occ</field>
    <set>
     <set comment="spin 1">
      <set comment="kpoint 1">
       <r>   -1.6026    1.0000 </r>
       <r>    3.3544    1.0000 </r>
       <r>    3.3544    1.0000 </r>
       <r>    4.1708    1.0000 </r>
       <r>    4.7715    1.0000 </r>
       <r>    4.7715    1.0034 </r>
       <r>   27.4016    0.0000 </r>
       <r>   27.4016    0.0000 </r>
       <r>   31.4481    0.0000 </r>
       <r>   31.9169    0.0000 </r>
       <r>   37.0438    0.0000 </r>
       <r>   37.0438    0.0000 </r>
      </set>
      <set comment="kpoint 2">
       <r>   -0.0008    1.0000 </r>
       <r>    2.9382    1.0000 </r>
       <r>    3.1533    1.0000 </r>
       <r>    4.7090    1.0000 </r>
       <r>    4.8974    1.0010 </r>
       <r>    5.2102    0.8803 </r>
       <r>   21.9723    0.0000 </r>
       <r>   25.0516    0.0000 </r>
       <r>   27.5235    0.0000 </r>
       <r>   32.2767    0.0000 </r>
       <r>   36.5169    0.0000 </r>
       <r>   37.6747    0.0000 </r>
      </set>
      <set comment="kpoint 3">
       <r>    1.1206    1.0000 </r>
       <r>    2.5822    1.0000 </r>
       <r>    3.9499    1.0000 </r>
       <r>    4.8545    1.0000 </r>
       <r>    4.9974    1.0339 </r>
       <r>    6.6598    0.0087 </r>
       <r>   16.4858    0.0000 </r>
       <r>   23.3320    0.0000 </r>
       <r>   25.1498    0.0000 </r>
       <r>   31.7758    0.0000 </r>
       <r>   35.8201    0.0000 </r>
       <r>   41.0299    0.0000 </r>
      </set>
      <set comment="kpoint 4">
       <r>    1.1654    1.0000 </r>
       <r>    2.4455    1.0000 </r>
       <r>    4.9201    1.0000 </r>
       <r>    4.9601    1.0000 </r>
       <r>    5.0384    1.0804 </r>
       <r>    8.0523   -0.0049 </r>
       <r>   13.3798    0.0000 </r>
       <r>   22.6995    0.0000 </r>
       <r>   24.2647    0.0000 </r>
       <r>   31.5509    0.0000 </r>
       <r>   35.7213    0.0000 </r>
       <r>   40.9058    0.0000 </r>
      </set>
      <set comment="kpoint 5">
       <r>   -2.2245    1.0000 </r>
       <r>    3.5617    1.0000 </r>
       <r>    3.5617    1.0000 </r>
       <r>    3.6511    1.0000 </r>
       <r>    4.6942    1.0000 </r>
       <r>    4.8974    1.0000 </r>
       <r>   29.3091    0.0000 </r>
       <r>   30.6674    0.0000 </r>
       <r>   30.6674    0.0000 </r>
       <r>   33.8920    0.0000 </r>
       <r>   36.1148    0.0000 </r>
       <r>   36.1148    0.0000 </r>
      </set>
      <set comment="kpoint 6">
       <r>    1.4755    1.0000 </r>
       <r>    2.6524    1.0000 </r>
       <r>    2.8608    1.0000 </r>
       <r>    4.7919    1.0000 </r>
       <r>    5.0312    1.0008 </r>
       <r>    6.8712   -0.0105 </r>
       <r>   19.4344    0.0000 </r>
       <r>   20.2799    0.0000 </r>
       <r>   24.2321    0.0000 </r>
       <r>   34.2289    0.0000 </r>
       <r>   37.9696    0.0000 </r>
       <r>   40.4060    0.0000 </r>
      </set>
      <set comment="kpoint 7">
       <r>    1.8017    1.0000 </r>
       <r>    2.4840    1.0000 </r>
       <r>    3.5115    1.0000 </r>
       <r>    4.9355    1.0000 </r>
       <r>    5.1289    1.0100 </r>
       <r>    9.3589   -0.0035 </r>
       <r>   14.7883    0.0000 </r>
       <r>   18.6804    0.0000 </r>
       <r>   22.9270    0.0000 </r>
       <r>   34.6084    0.0000 </r>
       <r>   38.9923    0.0000 </r>
       <r>   41.0464    0.0000 </r>
      </set>
      <set comment="kpoint 8">
       <r>   -1.0235    1.0000 </r>
       <r>    3.2898    1.0000 </r>
       <r>    3.4870    1.0000 </r>
       <r>    4.2778    1.0000 </r>
       <r>    4.4493    1.0000 </r>
       <r>    4.9995    1.0107 </r>
       <r>   24.8584    0.0000 </r>
       <r>   28.2451    0.0000 </r>
       <r>   29.1611    0.0000 </r>
       <r>   33.2741    0.0000 </r>
       <r>   33.4548    0.0000 </r>
       <r>   35.0256    0.0000 </r>
      </set>
      <set comment="kpoint 9">
       <r>    2.1224    1.0000 </r>
       <r>    2.8530    1.0000 </r>
       <r>    2.8530    1.0000 </r>
       <r>    5.0762    1.0000 </r>
       <r>    5.0762    1.0000 </r>
       <r>   12.9121    0.0000 </r>
       <r>   12.9121    0.0000 </r>
       <r>   15.4849    0.0000 </r>
       <r>   22.4499    0.0000 </r>
       <r>   37.0725    0.0000 </r>
       <r>   37.0725    0.0000 </r>
       <r>   44.3594    0.0000 </r>
      </set>
      <set comment="kpoint 10">
       <r>    0.6095    1.0000 </r>
       <r>    2.8860    1.0000 </r>
       <r>    3.5514    1.0000 </r>
       <r>    4.6593    1.0000 </r>
       <r>    5.1881    1.0177 </r>
       <r>    5.3080    0.7053 </r>
       <r>   19.0612    0.0000 </r>
       <r>   25.8135    0.0000 </r>
       <r>   27.0422    0.0000 </r>
       <r>   31.5531    0.0000 </r>
       <r>   33.4864    0.0000 </r>
       <r>   36.3910    0.0000 </r>
      </set>
      <set comment="kpoint 11">
       <r>    0.4309    1.0000 </r>
       <r>    3.0692    1.0000 </r>
       <r>    3.2797    1.0000 </r>
       <r>    4.3224    1.0000 </r>
       <r>    5.0280    1.0020 </r>
       <r>    5.3913    0.7540 </r>
       <r>   22.0409    0.0000 </r>
       <r>   23.0622    0.0000 </r>
       <r>   29.5870    0.0000 </r>
       <r>   29.8924    0.0000 </r>
       <r>   33.6695    0.0000 </r>
       <r>   38.3458    0.0000 </r>
      </set>
      <set comment="kpoint 12">
       <r>    1.0436    1.0000 </r>
       <r>    2.6123    1.0000 </r>
       <r>    4.3410    1.0000 </r>
       <r>    4.8309    1.0000 </r>
       <r>    6.1372    0.4598 </r>
       <r>    6.5591    0.0018 </r>
       <r>   14.2872    0.0000 </r>
       <r>   24.4228    0.0000 </r>
       <r>   25.4079    0.0000 </r>
       <r>   30.8328    0.0000 </r>
       <r>   33.7667    0.0000 </r>
       <r>   38.0621    0.0000 </r>
      </set>
      <set comment="kpoint 13">
       <r>    1.4674    1.0000 </r>
       <r>    2.7597    1.0000 </r>
       <r>    3.3487    1.0000 </r>
       <r>    4.6299    1.0000 </r>
       <r>    5.4279    1.0242 </r>
       <r>    7.1567   -0.0362 </r>
       <r>   16.8630    0.0000 </r>
       <r>   20.8008    0.0000 </r>
       <r>   27.4166    0.0000 </r>
       <r>   30.6249    0.0000 </r>
       <r>   34.2897    0.0000 </r>
       <r>   38.8966    0.0000 </r>
      </set>
      <set comment="kpoint 14">
       <r>    1.4920    1.0000 </r>
       <r>    2.7507    1.0000 </r>
       <r>    3.5240    1.0000 </r>
       <r>    4.7374    1.0000 </r>
       <r>    5.7845    0.8634 </r>
       <r>    9.1772   -0.0018 </r>
       <r>   13.4784    0.0000 </r>
       <r>   20.0971    0.0000 </r>
       <r>   26.5632    0.0000 </r>
       <r>   30.9796    0.0000 </r>
       <r>   35.2353    0.0000 </r>
       <r>   38.2035    0.0000 </r>
      </set>
      <set comment="kpoint 15">
       <r>    2.1954    1.0000 </r>
       <r>    2.4517    1.0000 </r>
       <r>    3.0035    1.0000 </r>
       <r>    4.9355    1.0000 </r>
       <r>    5.4005    1.0411 </r>
       <r>   10.4405   -0.0006 </r>
       <r>   14.8903    0.0000 </r>
       <r>   16.2912    0.0000 </r>
       <r>   27.8409    0.0000 </r>
       <r>   31.0022    0.0000 </r>
       <r>   33.2244    0.0000 </r>
       <r>   40.5355    0.0000 </r>
      </set>
      <set comment="kpoint 16">
       <r>    2.4687    1.0000 </r>
       <r>    2.4687    1.0000 </r>
       <r>    2.6537    1.0000 </r>
       <r>    5.0141    1.0000 </r>
       <r>    5.0141    1.0000 </r>
       <r>    9.3480   -0.0044 </r>
       <r>   17.7713    0.0000 </r>
       <r>   17.7713    0.0000 </r>
       <r>   19.1911    0.0000 </r>
       <r>   38.9490    0.0000 </r>
       <r>   41.6990    0.0000 </r>
       <r>   41.6990    0.0000 </r>
      </set>
      <set comment="kpoint 17">
       <r>    2.3537    1.0000 </r>
       <r>    2.4305    1.0000 </r>
       <r>    3.1028    1.0000 </r>
       <r>    5.0485    1.0000 </r>
       <r>    5.0636    1.0000 </r>
       <r>   12.1933    0.0000 </r>
       <r>   14.0727    0.0000 </r>
       <r>   17.1994    0.0000 </r>
       <r>   18.2446    0.0000 </r>
       <r>   40.0200    0.0000 </r>
       <r>   43.4594    0.0000 </r>
       <r>   43.9250    0.0000 </r>
      </set>
      <set comment="kpoint 18">
       <r>    0.0249    1.0000 </r>
       <r>    3.6495    1.0000 </r>
       <r>    3.7169    1.0000 </r>
       <r>    3.7169    1.0000 </r>
       <r>    4.2915    1.0000 </r>
       <r>    5.3725    0.8989 </r>
       <r>   24.9544    0.0000 </r>
       <r>   26.0213    0.0000 </r>
       <r>   26.0213    0.0000 </r>
       <r>   27.9706    0.0000 </r>
       <r>   37.4903    0.0000 </r>
       <r>   37.4903    0.0000 </r>
      </set>
      <set comment="kpoint 19">
       <r>    1.3236    1.0000 </r>
       <r>    2.8701    1.0000 </r>
       <r>    3.5754    1.0000 </r>
       <r>    4.2502    1.0000 </r>
       <r>    5.1893    1.0353 </r>
       <r>    6.2513    0.1039 </r>
       <r>   19.9211    0.0000 </r>
       <r>   23.3918    0.0000 </r>
       <r>   24.5319    0.0000 </r>
       <r>   28.5599    0.0000 </r>
       <r>   36.5514    0.0000 </r>
       <r>   38.3140    0.0000 </r>
      </set>
      <set comment="kpoint 20">
       <r>    1.5910    1.0000 </r>
       <r>    2.8040    1.0000 </r>
       <r>    3.3737    1.0000 </r>
       <r>    4.4714    1.0000 </r>
       <r>    6.0542    0.3150 </r>
       <r>    8.7623   -0.0112 </r>
       <r>   14.8008    0.0000 </r>
       <r>   21.7553    0.0000 </r>
       <r>   23.6816    0.0000 </r>
       <r>   31.0788    0.0000 </r>
       <r>   35.6112    0.0000 </r>
       <r>   36.3198    0.0000 </r>
      </set>
      <set comment="kpoint 21">
       <r>    1.9196    1.0000 </r>
       <r>    2.2309    1.0000 </r>
       <r>    3.6574    1.0000 </r>
       <r>    4.6544    1.0000 </r>
       <r>    5.6222    1.0629 </r>
       <r>    8.6496   -0.0148 </r>
       <r>   17.7476    0.0000 </r>
       <r>   18.3938    0.0000 </r>
       <r>   25.9764    0.0000 </r>
       <r>   27.5416    0.0000 </r>
       <r>   35.2679    0.0000 </r>
       <r>   38.2809    0.0000 </r>
      </set>
      <set comment="kpoint 22">
       <r>    1.8617    1.0000 </r>
       <r>    2.2442    1.0000 </r>
       <r>    3.4601    1.0000 </r>
       <r>    4.9714    1.0000 </r>
       <r>    5.8575    0.6700 </r>
       <r>   11.6761    0.0000 </r>
       <r>   13.9371    0.0000 </r>
       <r>   17.3858    0.0000 </r>
       <r>   25.9930    0.0000 </r>
       <r>   29.1699    0.0000 </r>
       <r>   32.7834    0.0000 </r>
       <r>   37.2623    0.0000 </r>
      </set>
      <set comment="kpoint 23">
       <r>    1.7022    1.0000 </r>
       <r>    2.1827    1.0000 </r>
       <r>    4.5048    1.0000 </r>
       <r>    4.5048    1.0000 </r>
       <r>    5.2252    1.1752 </r>
       <r>    8.0110   -0.0214 </r>
       <r>   20.4155    0.0000 </r>
       <r>   20.4155    0.0000 </r>
       <r>   22.6432    0.0000 </r>
       <r>   24.7783    0.0000 </r>
       <r>   36.7089    0.0000 </r>
       <r>   41.4732    0.0000 </r>
      </set>
      <set comment="kpoint 24">
       <r>    1.5879    1.0000 </r>
       <r>    1.7221    1.0000 </r>
       <r>    4.6452    1.0000 </r>
       <r>    4.9339    1.0000 </r>
       <r>    5.9393    0.2192 </r>
       <r>   11.1623    0.0000 </r>
       <r>   15.9809    0.0000 </r>
       <r>   18.5711    0.0000 </r>
       <r>   22.8392    0.0000 </r>
       <r>   25.7603    0.0000 </r>
       <r>   32.0369    0.0000 </r>
       <r>   40.9529    0.0000 </r>
      </set>
      <set comment="kpoint 25">
       <r>    1.4441    1.0000 </r>
       <r>    1.4441    1.0000 </r>
       <r>    4.7544    1.0000 </r>
       <r>    5.7804    1.0000 </r>
       <r>    5.7804    0.9503 </r>
       <r>   14.5904    0.0000 </r>
       <r>   14.5904    0.0000 </r>
       <r>   15.7553    0.0000 </r>
       <r>   24.3165    0.0000 </r>
       <r>   24.3165    0.0000 </r>
       <r>   29.5191    0.0000 </r>
       <r>   41.5101    0.0000 </r>
      </set>
      <set comment="kpoint 26">
       <r>    1.1757    1.0000 </r>
       <r>    1.1775    1.0000 </r>
       <r>    5.7388    1.0000 </r>
       <r>    5.7388    1.0000 </r>
       <r>    5.9037    0.1370 </r>
       <r>   13.9769    0.0000 </r>
       <r>   16.5211    0.0000 </r>
       <r>   16.5211    0.0000 </r>
       <r>   21.7742    0.0000 </r>
       <r>   22.9643    0.0000 </r>
       <r>   27.9911    0.0000 </r>
       <r>   44.6972    0.0000 </r>
      </set>
     </set>
     <set comment="spin 2">
      <set comment="kpoint 1">
       <r>   -1.4761    1.0000 </r>
       <r>    5.2522    1.0000 </r>
       <r>    5.2522    1.0000 </r>
       <r>    6.1667    0.0038 </r>
       <r>    7.4378    0.0000 </r>
       <r>    7.4378    0.0000 </r>
       <r>   27.5602    0.0000 </r>
       <r>   27.5602    0.0000 </r>
       <r>   31.6032    0.0000 </r>
       <r>   32.2813    0.0000 </r>
       <r>   37.3202    0.0000 </r>
       <r>   37.3202    0.0000 </r>
      </set>
      <set comment="kpoint 2">
       <r>    0.2190    1.0000 </r>
       <r>    4.7480    1.0000 </r>
       <r>    4.9219    1.0000 </r>
       <r>    7.2465   -0.0027 </r>
       <r>    7.2902    0.0000 </r>
       <r>    7.5995    0.0000 </r>
       <r>   22.5433    0.0000 </r>
       <r>   25.3345    0.0000 </r>
       <r>   28.2402    0.0000 </r>
       <r>   32.1883    0.0000 </r>
       <r>   37.0710    0.0000 </r>
       <r>   37.8964    0.0000 </r>
      </set>
      <set comment="kpoint 3">
       <r>    2.0002    1.0000 </r>
       <r>    4.3151    1.0000 </r>
       <r>    5.0746    1.0016 </r>
       <r>    7.3884    0.0000 </r>
       <r>    7.7436    0.0000 </r>
       <r>    8.5762    0.0000 </r>
       <r>   17.4227    0.0000 </r>
       <r>   23.6017    0.0000 </r>
       <r>   25.7733    0.0000 </r>
       <r>   31.9411    0.0000 </r>
       <r>   36.3580    0.0000 </r>
       <r>   41.1654    0.0000 </r>
      </set>
      <set comment="kpoint 4">
       <r>    2.4441    1.0000 </r>
       <r>    4.1496    1.0000 </r>
       <r>    5.8799    0.9860 </r>
       <r>    7.4638    0.0000 </r>
       <r>    7.8061    0.0000 </r>
       <r>    9.4614    0.0000 </r>
       <r>   14.7069    0.0000 </r>
       <r>   22.9470    0.0000 </r>
       <r>   24.8391    0.0000 </r>
       <r>   31.7934    0.0000 </r>
       <r>   36.2841    0.0000 </r>
       <r>   40.8946    0.0000 </r>
      </set>
      <set comment="kpoint 5">
       <r>   -2.1059    1.0000 </r>
       <r>    5.4971    1.0000 </r>
       <r>    5.4971    1.0000 </r>
       <r>    5.6085    0.6077 </r>
       <r>    7.3497    0.0000 </r>
       <r>    7.6100    0.0000 </r>
       <r>   29.1785    0.0000 </r>
       <r>   30.5221    0.0000 </r>
       <r>   30.5221    0.0000 </r>
       <r>   34.2383    0.0000 </r>
       <r>   36.8689    0.0000 </r>
       <r>   36.8689    0.0000 </r>
      </set>
      <set comment="kpoint 6">
       <r>    2.0118    1.0000 </r>
       <r>    4.3463    1.0000 </r>
       <r>    4.4589    1.0000 </r>
       <r>    7.3694    0.0000 </r>
       <r>    7.7383    0.0000 </r>
       <r>    8.7765    0.0000 </r>
       <r>   20.1123    0.0000 </r>
       <r>   20.8971    0.0000 </r>
       <r>   24.7995    0.0000 </r>
       <r>   34.1343    0.0000 </r>
       <r>   38.2497    0.0000 </r>
       <r>   40.6804    0.0000 </r>
      </set>
      <set comment="kpoint 7">
       <r>    3.0799    1.0000 </r>
       <r>    4.1062    1.0000 </r>
       <r>    4.7375    1.0002 </r>
       <r>    7.5154    0.0000 </r>
       <r>    7.8120    0.0000 </r>
       <r>   10.7601    0.0000 </r>
       <r>   15.8031    0.0000 </r>
       <r>   19.3168    0.0000 </r>
       <r>   23.4506    0.0000 </r>
       <r>   34.6537    0.0000 </r>
       <r>   39.0752    0.0000 </r>
       <r>   41.4381    0.0000 </r>
      </set>
      <set comment="kpoint 8">
       <r>   -0.8773    1.0000 </r>
       <r>    5.1672    1.0000 </r>
       <r>    5.3700    1.0000 </r>
       <r>    6.2956   -0.0103 </r>
       <r>    6.9855    0.0000 </r>
       <r>    7.7212    0.0000 </r>
       <r>   25.2445    0.0000 </r>
       <r>   28.3337    0.0000 </r>
       <r>   29.4837    0.0000 </r>
       <r>   33.6480    0.0000 </r>
       <r>   33.9984    0.0000 </r>
       <r>   35.4136    0.0000 </r>
      </set>
      <set comment="kpoint 9">
       <r>    3.6311    1.0000 </r>
       <r>    4.2587    1.0000 </r>
       <r>    4.2587    1.0000 </r>
       <r>    7.6963    0.0000 </r>
       <r>    7.6963    0.0000 </r>
       <r>   13.9356    0.0000 </r>
       <r>   13.9356    0.0000 </r>
       <r>   16.3706    0.0000 </r>
       <r>   22.9930    0.0000 </r>
       <r>   37.0750    0.0000 </r>
       <r>   37.0750    0.0000 </r>
       <r>   45.0381    0.0000 </r>
      </set>
      <set comment="kpoint 10">
       <r>    1.0743    1.0000 </r>
       <r>    4.6849    1.0000 </r>
       <r>    5.1071    1.0001 </r>
       <r>    7.0565    0.0000 </r>
       <r>    7.4461    0.0000 </r>
       <r>    7.8464    0.0000 </r>
       <r>   19.8372    0.0000 </r>
       <r>   25.9098    0.0000 </r>
       <r>   27.6216    0.0000 </r>
       <r>   31.9930    0.0000 </r>
       <r>   33.9741    0.0000 </r>
       <r>   36.6396    0.0000 </r>
      </set>
      <set comment="kpoint 11">
       <r>    0.7187    1.0000 </r>
       <r>    4.9414    1.0000 </r>
       <r>    5.0578    1.0016 </r>
       <r>    6.7028   -0.0015 </r>
       <r>    7.1759    0.0000 </r>
       <r>    7.9630    0.0000 </r>
       <r>   22.6191    0.0000 </r>
       <r>   23.6061    0.0000 </r>
       <r>   29.7818    0.0000 </r>
       <r>   30.3646    0.0000 </r>
       <r>   34.0366    0.0000 </r>
       <r>   38.6525    0.0000 </r>
      </set>
      <set comment="kpoint 12">
       <r>    2.2352    1.0000 </r>
       <r>    4.3615    1.0000 </r>
       <r>    5.7358    1.0009 </r>
       <r>    7.2777    0.0000 </r>
       <r>    8.2403    0.0000 </r>
       <r>    8.3940    0.0000 </r>
       <r>   15.4867    0.0000 </r>
       <r>   24.4888    0.0000 </r>
       <r>   25.9639    0.0000 </r>
       <r>   31.3078    0.0000 </r>
       <r>   34.3313    0.0000 </r>
       <r>   38.1477    0.0000 </r>
      </set>
      <set comment="kpoint 13">
       <r>    2.4145    1.0000 </r>
       <r>    4.4925    1.0000 </r>
       <r>    4.9111    1.0029 </r>
       <r>    6.9673    0.0000 </r>
       <r>    7.8541    0.0000 </r>
       <r>    9.0020    0.0000 </r>
       <r>   17.7572    0.0000 </r>
       <r>   21.3817    0.0000 </r>
       <r>   27.7363    0.0000 </r>
       <r>   30.9778    0.0000 </r>
       <r>   34.5792    0.0000 </r>
       <r>   39.3007    0.0000 </r>
      </set>
      <set comment="kpoint 14">
       <r>    2.8660    1.0000 </r>
       <r>    4.4819    1.0000 </r>
       <r>    5.0207    1.0032 </r>
       <r>    7.1291    0.0000 </r>
       <r>    8.0924    0.0000 </r>
       <r>   10.4237    0.0000 </r>
       <r>   14.7390    0.0000 </r>
       <r>   20.6662    0.0000 </r>
       <r>   26.8500    0.0000 </r>
       <r>   31.4196    0.0000 </r>
       <r>   35.3073    0.0000 </r>
       <r>   38.7023    0.0000 </r>
      </set>
      <set comment="kpoint 15">
       <r>    3.5929    1.0000 </r>
       <r>    4.0952    1.0000 </r>
       <r>    4.6102    1.0050 </r>
       <r>    7.2692    0.0000 </r>
       <r>    7.7687    0.0000 </r>
       <r>   11.7308    0.0000 </r>
       <r>   15.8584    0.0000 </r>
[...]
       </set>
       <set comment="band 5">
        <r>  0.0065  0.0012  0.0012  0.0101  0.0930  0.3254  0.1124  0.0930  0.3372 </r>
       </set>
       <set comment="band 6">
        <r>  0.0582  0.0437  0.0437  0.2141  0.0913  0.1434  0.0519  0.0913  0.1558 </r>
       </set>
       <set comment="band 7">
        <r>  0.0000  0.1992  0.1992  0.0000  0.1362  0.0000  0.1455  0.1362  0.0485 </r>
       </set>
       <set comment="band 8">
        <r>  0.4563  0.0417  0.0417  0.0268  0.0805  0.0896  0.0014  0.0805  0.0043 </r>
       </set>
       <set comment="band 9">
        <r>  0.0270  0.1846  0.1846  0.0879  0.0525  0.0855  0.0005  0.0525  0.0015 </r>
       </set>
       <set comment="band 10">
        <r>  0.0000  0.0443  0.0443  0.0000  0.0530  0.0000  0.3028  0.0530  0.1009 </r>
       </set>
       <set comment="band 11">
        <r>  0.0264  0.0094  0.0094  0.0293  0.0217  0.1442  0.0935  0.0217  0.2804 </r>
       </set>
       <set comment="band 12">
        <r>  0.1118  0.0360  0.0360  0.1735  0.2253  0.2442  0.0193  0.2253  0.0579 </r>
       </set>
      </set>
      <set comment="kpoint 16">
       <set comment="band 1">
        <r>  0.1526  0.0886  0.0886  0.0886  0.1334  0.1334  0.0000  0.1334  0.0000 </r>
       </set>
       <set comment="band 2">
        <r>  0.0000  0.0387  0.0000  0.0397  0.0005  0.4036  0.0000  0.3934  0.0440 </r>
       </set>
       <set comment="band 3">
        <r>  0.0000  0.0136  0.0522  0.0126  0.5312  0.1281  0.0440  0.1383  0.0000 </r>
       </set>
       <set comment="band 4">
        <r>  0.0000  0.0000  0.0000  0.0000  0.0007  0.0287  0.0164  0.0280  0.9100 </r>
       </set>
       <set comment="band 5">
        <r>  0.0000  0.0000  0.0000  0.0000  0.0376  0.0095  0.9100  0.0103  0.0164 </r>
       </set>
       <set comment="band 6">
        <r>  0.0703  0.0594  0.0594  0.0594  0.2217  0.2217  0.0000  0.2217  0.0000 </r>
       </set>
       <set comment="band 7">
        <r>  0.0000  0.0893  0.1994  0.0467  0.2466  0.0578  0.0364  0.1105  0.0044 </r>
       </set>
       <set comment="band 8">
        <r>  0.0000  0.1343  0.0243  0.1769  0.0300  0.2188  0.0044  0.1661  0.0364 </r>
       </set>
       <set comment="band 9">
        <r>  0.5672  0.0782  0.0782  0.0782  0.0014  0.0014  0.0000  0.0014  0.0000 </r>
       </set>
       <set comment="band 10">
        <r>  0.0000  0.0000  0.0000  0.0000  0.0000  0.0000  0.0000  0.0000  0.0000 </r>
       </set>
       <set comment="band 11">
        <r>  0.0000  0.0012  0.0049  0.0019  0.3383  0.1289  0.0653  0.0857  0.0058 </r>
       </set>
       <set comment="band 12">
        <r>  0.0000  0.0041  0.0004  0.0034  0.0303  0.2397  0.0058  0.2829  0.0653 </r>
       </set>
      </set>
      <set comment="kpoint 17">
       <set comment="band 1">
        <r>  0.0335  0.0000  0.0000  0.1294  0.0000  0.6790  0.0121  0.0000  0.0364 </r>
       </set>
       <set comment="band 2">
        <r>  0.0000  0.0442  0.0442  0.0000  0.4157  0.0000  0.0000  0.4157  0.0000 </r>
       </set>
       <set comment="band 3">
        <r>  0.0000  0.1197  0.1197  0.0000  0.3160  0.0000  0.0000  0.3160  0.0000 </r>
       </set>
       <set comment="band 4">
        <r>  0.0004  0.0000  0.0000  0.0002  0.0000  0.0669  0.2295  0.0000  0.6886 </r>
       </set>
       <set comment="band 5">
        <r>  0.0000  0.0000  0.0000  0.0000  0.0000  0.0000  0.7406  0.0000  0.2469 </r>
       </set>
       <set comment="band 6">
        <r>  0.0000  0.1777  0.1777  0.0000  0.2452  0.0000  0.0000  0.2452  0.0000 </r>
       </set>
       <set comment="band 7">
        <r>  0.2311  0.0000  0.0000  0.1857  0.0000  0.4103  0.0072  0.0000  0.0216 </r>
       </set>
       <set comment="band 8">
        <r>  0.0000  0.1713  0.1713  0.0000  0.2226  0.0000  0.0000  0.2226  0.0000 </r>
       </set>
       <set comment="band 9">
        <r>  0.5367  0.0000  0.0000  0.2072  0.0000  0.0475  0.0019  0.0000  0.0058 </r>
       </set>
       <set comment="band 10">
        <r>  0.0000  0.0002  0.0002  0.0000  0.1227  0.0000  0.0000  0.1227  0.0000 </r>
       </set>
       <set comment="band 11">
        <r>  0.0000  0.0256  0.0256  0.0000  0.0625  0.0000  0.0000  0.0625  0.0000 </r>
       </set>
       <set comment="band 12">
        <r>  0.0125  0.0000  0.0000  0.0953  0.0000  0.1281  0.1086  0.0000  0.3232 </r>
       </set>
      </set>
      <set comment="kpoint 18">
       <set comment="band 1">
        <r>  0.5211  0.0000  0.0000  0.1772  0.0000  0.0000  0.0111  0.0000  0.0334 </r>
       </set>
       <set comment="band 2">
        <r>  0.0000  0.0121  0.0121  0.0000  0.4696  0.0000  0.0000  0.4696  0.0000 </r>
       </set>
       <set comment="band 3">
        <r>  0.0000  0.0121  0.0121  0.0000  0.4696  0.0000  0.0000  0.4696  0.0000 </r>
       </set>
       <set comment="band 4">
        <r>  0.0000  0.0000  0.0000  0.0000  0.0000  0.0000  0.6816  0.0000  0.2272 </r>
       </set>
       <set comment="band 5">
        <r>  0.0000  0.0000  0.0000  0.0000  0.0000  0.9768  0.0000  0.0000  0.0000 </r>
       </set>
       <set comment="band 6">
        <r>  0.0276  0.0000  0.0000  0.0074  0.0000  0.0000  0.2367  0.0000  0.7100 </r>
       </set>
       <set comment="band 7">
        <r>  0.0000  0.0000  0.0000  0.0000  0.0000  0.0000  0.4494  0.0000  0.1498 </r>
       </set>
       <set comment="band 8">
        <r>  0.0000  0.1752  0.1752  0.0000  0.2814  0.0000  0.0000  0.2814  0.0000 </r>
       </set>
       <set comment="band 9">
        <r>  0.0000  0.1752  0.1752  0.0000  0.2814  0.0000  0.0000  0.2814  0.0000 </r>
       </set>
       <set comment="band 10">
        <r>  0.1616  0.0000  0.0000  0.2807  0.0000  0.0000  0.0000  0.0000  0.0000 </r>
       </set>
       <set comment="band 11">
        <r>  0.0000  0.1629  0.1626  0.0000  0.0038  0.0000  0.0000  0.0038  0.0000 </r>
       </set>
       <set comment="band 12">
        <r>  0.0000  0.1626  0.1629  0.0000  0.0038  0.0000  0.0000  0.0038  0.0000 </r>
       </set>
      </set>
      <set comment="kpoint 19">
       <set comment="band 1">
        <r>  0.3213  0.0078  0.0000  0.2230  0.0500  0.0000  0.0659  0.0000  0.0992 </r>
       </set>
       <set comment="band 2">
        <r>  0.0018  0.0306  0.0000  0.0121  0.2111  0.0000  0.4081  0.0000  0.2227 </r>
       </set>
       <set comment="band 3">
        <r>  0.0000  0.0000  0.0244  0.0000  0.0000  0.2758  0.0000  0.6577  0.0000 </r>
       </set>
       <set comment="band 4">
        <r>  0.0000  0.0230  0.0000  0.0079  0.6367  0.0000  0.2669  0.0000  0.0143 </r>
       </set>
       <set comment="band 5">
        <r>  0.0000  0.0000  0.0091  0.0000  0.0000  0.7001  0.0000  0.2681  0.0000 </r>
       </set>
       <set comment="band 6">
        <r>  0.0872  0.0076  0.0000  0.0511  0.0086  0.0000  0.1714  0.0000  0.6366 </r>
       </set>
       <set comment="band 7">
        <r>  0.0905  0.2673  0.0000  0.0337  0.2781  0.0000  0.1234  0.0000  0.0527 </r>
       </set>
       <set comment="band 8">
        <r>  0.0000  0.0000  0.4882  0.0000  0.0000  0.0106  0.0000  0.4124  0.0000 </r>
       </set>
       <set comment="band 9">
        <r>  0.0927  0.0015  0.0000  0.0744  0.0288  0.0000  0.3567  0.0000  0.0481 </r>
       </set>
       <set comment="band 10">
        <r>  0.0635  0.2008  0.0000  0.0679  0.1193  0.0000  0.0371  0.0000  0.1258 </r>
       </set>
       <set comment="band 11">
        <r>  0.0000  0.0000  0.1738  0.0000  0.0000  0.5840  0.0000  0.1369  0.0000 </r>
       </set>
       <set comment="band 12">
        <r>  0.0674  0.1753  0.0000  0.0110  0.0929  0.0000  0.1776  0.0000  0.0877 </r>
       </set>
      </set>
      <set comment="kpoint 20">
       <set comment="band 1">
        <r>  0.1184  0.0004  0.0000  0.0877  0.2616  0.0000  0.3418  0.0000  0.0335 </r>
       </set>
       <set comment="band 2">
        <r>  0.0044  0.0964  0.0000  0.0949  0.0295  0.0000  0.0937  0.0000  0.5161 </r>
       </set>
       <set comment="band 3">
        <r>  0.0000  0.0000  0.0240  0.0000  0.0000  0.4149  0.0000  0.5158  0.0000 </r>
       </set>
       <set comment="band 4">
        <r>  0.0197  0.0111  0.0000  0.0007  0.5018  0.0000  0.4129  0.0000  0.0036 </r>
       </set>
       <set comment="band 5">
        <r>  0.0000  0.0000  0.0026  0.0000  0.0000  0.5574  0.0000  0.4293  0.0000 </r>
       </set>
       <set comment="band 6">
        <r>  0.0684  0.1036  0.0000  0.2131  0.0379  0.0000  0.0339  0.0000  0.4383 </r>
       </set>
       <set comment="band 7">
        <r>  0.2662  0.1885  0.0000  0.0021  0.3010  0.0000  0.1034  0.0000  0.0281 </r>
       </set>
       <set comment="band 8">
        <r>  0.0000  0.0000  0.5819  0.0000  0.0000  0.0660  0.0000  0.2137  0.0000 </r>
       </set>
       <set comment="band 9">
        <r>  0.1063  0.0220  0.0000  0.0527  0.0080  0.0000  0.3909  0.0000  0.0054 </r>
       </set>
       <set comment="band 10">
        <r>  0.0111  0.1529  0.0000  0.0005  0.0266  0.0000  0.0320  0.0000  0.3796 </r>
       </set>
       <set comment="band 11">
        <r>  0.0000  0.0000  0.1470  0.0000  0.0000  0.5071  0.0000  0.3300  0.0000 </r>
       </set>
       <set comment="band 12">
        <r>  0.0030  0.1459  0.0000  0.2141  0.0042  0.0000  0.3610  0.0000  0.0983 </r>
       </set>
      </set>
      <set comment="kpoint 21">
       <set comment="band 1">
        <r>  0.1242  0.0051  0.0051  0.1870  0.0465  0.0002  0.0988  0.0465  0.2963 </r>
       </set>
       <set comment="band 2">
        <r>  0.0000  0.0209  0.0209  0.0000  0.0647  0.0000  0.5240  0.0647  0.1747 </r>
       </set>
       <set comment="band 3">
        <r>  0.0064  0.0163  0.0163  0.0095  0.2503  0.3242  0.0173  0.2503  0.0518 </r>
       </set>
       <set comment="band 4">
        <r>  0.0000  0.0161  0.0161  0.0000  0.3811  0.0000  0.1232  0.3811  0.0411 </r>
       </set>
       <set comment="band 5">
        <r>  0.0120  0.0004  0.0004  0.0054  0.1172  0.6085  0.0295  0.1172  0.0886 </r>
       </set>
       <set comment="band 6">
        <r>  0.1294  0.0185  0.0185  0.1903  0.0452  0.0409  0.1058  0.0452  0.3173 </r>
       </set>
       <set comment="band 7">
        <r>  0.0000  0.2105  0.2105  0.0000  0.1116  0.0000  0.1728  0.1116  0.0576 </r>
       </set>
       <set comment="band 8">
        <r>  0.2364  0.1459  0.1459  0.0305  0.1084  0.0280  0.0038  0.1084  0.0114 </r>
       </set>
       <set comment="band 9">
        <r>  0.0000  0.0622  0.0622  0.0000  0.0472  0.0000  0.3981  0.0472  0.1327 </r>
       </set>
       <set comment="band 10">
        <r>  0.0868  0.1176  0.1176  0.0326  0.0111  0.0021  0.0518  0.0111  0.1554 </r>
       </set>
       <set comment="band 11">
        <r>  0.0013  0.0692  0.0692  0.1276  0.0519  0.2321  0.0572  0.0519  0.1716 </r>
       </set>
       <set comment="band 12">
        <r>  0.1639  0.0001  0.0001  0.1774  0.1153  0.2231  0.0381  0.1153  0.1144 </r>
       </set>
      </set>
      <set comment="kpoint 22">
       <set comment="band 1">
        <r>  0.0281  0.0244  0.0218  0.0244  0.1585  0.0000  0.5995  0.0000  0.0000 </r>
       </set>
       <set comment="band 2">
        <r>  0.0000  0.0748  0.0000  0.0748  0.0000  0.0178  0.0000  0.0178  0.6549 </r>
       </set>
       <set comment="band 3">
        <r>  0.0323  0.0010  0.0223  0.0010  0.1545  0.3422  0.0431  0.3422  0.0000 </r>
       </set>
       <set comment="band 4">
        <r>  0.0101  0.0067  0.0123  0.0067  0.5120  0.1092  0.1955  0.1092  0.0000 </r>
       </set>
       <set comment="band 5">
        <r>  0.0000  0.0097  0.0000  0.0097  0.0000  0.4378  0.0000  0.4378  0.0872 </r>
       </set>
       <set comment="band 6">
        <r>  0.0000  0.2390  0.0000  0.2390  0.0000  0.0475  0.0000  0.0475  0.2934 </r>
       </set>
       <set comment="band 7">
        <r>  0.2570  0.0916  0.0424  0.0916  0.2586  0.0002  0.1393  0.0002  0.0000 </r>
       </set>
       <set comment="band 8">
        <r>  0.1698  0.0024  0.3751  0.0024  0.0028  0.0959  0.0817  0.0959  0.0000 </r>
       </set>
       <set comment="band 9">
        <r>  0.0293  0.0021  0.1484  0.0021  0.0157  0.0140  0.4713  0.0140  0.0000 </r>
       </set>
       <set comment="band 10">
        <r>  0.0000  0.0480  0.0000  0.0480  0.0000  0.0057  0.0000  0.0057  0.5524 </r>
       </set>
       <set comment="band 11">
        <r>  0.0383  0.2145  0.0882  0.2145  0.0000  0.0414  0.1023  0.0414  0.0000 </r>
       </set>
       <set comment="band 12">
        <r>  0.2137  0.0225  0.0075  0.0225  0.1920  0.2800  0.0085  0.2800  0.0000 </r>
       </set>
      </set>
      <set comment="kpoint 23">
       <set comment="band 1">
        <r>  0.1332  0.0000  0.0000  0.2137  0.0000  0.0000  0.1124  0.0000  0.3372 </r>
       </set>
       <set comment="band 2">
        <r>  0.0000  0.0000  0.0000  0.0000  0.0000  0.0000  0.6507  0.0000  0.2169 </r>
       </set>
       <set comment="band 3">
        <r>  0.0000  0.0251  0.0251  0.0000  0.4522  0.0000  0.0000  0.4522  0.0000 </r>
       </set>
       <set comment="band 4">
        <r>  0.0000  0.0251  0.0251  0.0000  0.4522  0.0000  0.0000  0.4522  0.0000 </r>
       </set>
       <set comment="band 5">
        <r>  0.0000  0.0000  0.0000  0.0000  0.0000  0.9778  0.0000  0.0000  0.0000 </r>
       </set>
       <set comment="band 6">
        <r>  0.1840  0.0000  0.0000  0.1762  0.0000  0.0000  0.1378  0.0000  0.4133 </r>
       </set>
       <set comment="band 7">
        <r>  0.0000  0.2841  0.2841  0.0000  0.1504  0.0000  0.0000  0.1504  0.0000 </r>
       </set>
       <set comment="band 8">
        <r>  0.0000  0.2841  0.2841  0.0000  0.1504  0.0000  0.0000  0.1504  0.0000 </r>
       </set>
       <set comment="band 9">
        <r>  0.0000  0.0000  0.0000  0.0000  0.0000  0.0000  0.6128  0.0000  0.2043 </r>
       </set>
       <set comment="band 10">
        <r>  0.2849  0.0000  0.0000  0.0728  0.0000  0.0000  0.0555  0.0000  0.1665 </r>
       </set>
       <set comment="band 11">
        <r>  0.1282  0.0000  0.0000  0.3117  0.0000  0.0000  0.1058  0.0000  0.3175 </r>
       </set>
       <set comment="band 12">
        <r>  0.0000  0.0000  0.0000  0.0000  0.0000  1.0128  0.0000  0.0000  0.0000 </r>
       </set>
      </set>
      <set comment="kpoint 24">
       <set comment="band 1">
        <r>  0.0231  0.0011  0.0000  0.0973  0.0207  0.0000  0.3683  0.0000  0.3282 </r>
       </set>
       <set comment="band 2">
        <r>  0.0000  0.0254  0.0000  0.0076  0.0138  0.0000  0.4048  0.0000  0.4037 </r>
       </set>
       <set comment="band 3">
        <r>  0.0000  0.0000  0.0405  0.0000  0.0000  0.3307  0.0000  0.5865  0.0000 </r>
       </set>
       <set comment="band 4">
        <r>  0.0193  0.0343  0.0000  0.0061  0.8325  0.0000  0.0592  0.0000  0.0017 </r>
       </set>
       <set comment="band 5">
        <r>  0.0000  0.0000  0.0025  0.0000  0.0000  0.6423  0.0000  0.3421  0.0000 </r>
       </set>
       <set comment="band 6">
        <r>  0.1284  0.0409  0.0000  0.3692  0.0297  0.0000  0.0488  0.0000  0.2377 </r>
       </set>
       <set comment="band 7">
        <r>  0.1237  0.4360  0.0000  0.0000  0.1750  0.0000  0.0579  0.0000  0.0509 </r>
       </set>
       <set comment="band 8">
        <r>  0.0000  0.0000  0.6378  0.0000  0.0000  0.0300  0.0000  0.1526  0.0000 </r>
       </set>
       <set comment="band 9">
        <r>  0.0786  0.0032  0.0000  0.0040  0.0083  0.0000  0.6941  0.0000  0.0193 </r>
       </set>
       <set comment="band 10">
        <r>  0.0805  0.1035  0.0000  0.0003  0.0085  0.0000  0.0000  0.0000  0.5334 </r>
       </set>
       <set comment="band 11">
        <r>  0.2820  0.0632  0.0000  0.2782  0.0131  0.0000  0.0831  0.0000  0.1017 </r>
       </set>
       <set comment="band 12">
        <r>  0.0000  0.0000  0.0710  0.0000  0.0000  0.4972  0.0000  0.2426  0.0000 </r>
       </set>
      </set>
      <set comment="kpoint 25">
       <set comment="band 1">
        <r>  0.0000  0.0199  0.0000  0.0199  0.0000  0.0040  0.0000  0.0040  0.8033 </r>
       </set>
       <set comment="band 2">
        <r>  0.0000  0.0066  0.0265  0.0066  0.0054  0.0013  0.8033  0.0013  0.0000 </r>
       </set>
       <set comment="band 3">
        <r>  0.0176  0.0134  0.0134  0.0134  0.2979  0.2980  0.0000  0.2980  0.0000 </r>
       </set>
       <set comment="band 4">
        <r>  0.0000  0.0034  0.0136  0.0034  0.6273  0.1568  0.0176  0.1568  0.0000 </r>
       </set>
       <set comment="band 5">
        <r>  0.0000  0.0102  0.0000  0.0102  0.0000  0.4704  0.0000  0.4704  0.0176 </r>
       </set>
       <set comment="band 6">
        <r>  0.0000  0.2956  0.0000  0.2956  0.0000  0.0293  0.0000  0.0293  0.1799 </r>
       </set>
       <set comment="band 7">
        <r>  0.0000  0.0985  0.3941  0.0985  0.0390  0.0098  0.1799  0.0098  0.0000 </r>
       </set>
       <set comment="band 8">
        <r>  0.2553  0.1290  0.1290  0.1290  0.0533  0.0533  0.0000  0.0533  0.0000 </r>
       </set>
       <set comment="band 9">
        <r>  0.0000  0.0424  0.0000  0.0424  0.0000  0.0038  0.0000  0.0038  0.7259 </r>
       </set>
       <set comment="band 10">
        <r>  0.0000  0.0141  0.0565  0.0141  0.0051  0.0013  0.7259  0.0013  0.0000 </r>
       </set>
       <set comment="band 11">
        <r>  0.4768  0.0994  0.0994  0.0994  0.0034  0.0034  0.0000  0.0034  0.0000 </r>
       </set>
       <set comment="band 12">
        <r>  0.0359  0.0181  0.0181  0.0181  0.2112  0.2112  0.0000  0.2112  0.0000 </r>
       </set>
      </set>
      <set comment="kpoint 26">
       <set comment="band 1">
        <r>  0.0014  0.0000  0.0000  0.0270  0.0000  0.0000  0.2055  0.0000  0.6164 </r>
       </set>
       <set comment="band 2">
        <r>  0.0000  0.0000  0.0000  0.0000  0.0000  0.0000  0.6411  0.0000  0.2137 </r>
       </set>
       <set comment="band 3">
        <r>  0.0000  0.0108  0.0108  0.0000  0.4778  0.0000  0.0000  0.4778  0.0000 </r>
       </set>
       <set comment="band 4">
        <r>  0.0000  0.0108  0.0108  0.0000  0.4778  0.0000  0.0000  0.4778  0.0000 </r>
       </set>
       <set comment="band 5">
        <r>  0.0000  0.0000  0.0000  0.0000  0.0000  0.9869  0.0000  0.0000  0.0000 </r>
       </set>
       <set comment="band 6">
        <r>  0.0828  0.0000  0.0000  0.5850  0.0000  0.0000  0.0311  0.0000  0.0933 </r>
       </set>
       <set comment="band 7">
        <r>  0.0000  0.3555  0.3555  0.0000  0.0291  0.0000  0.0000  0.0291  0.0000 </r>
       </set>
       <set comment="band 8">
        <r>  0.0000  0.3555  0.3555  0.0000  0.0291  0.0000  0.0000  0.0291  0.0000 </r>
       </set>
       <set comment="band 9">
        <r>  0.0000  0.0000  0.0000  0.0000  0.0000  0.0000  0.6937  0.0000  0.2312 </r>
       </set>
       <set comment="band 10">
        <r>  0.0618  0.0000  0.0000  0.0209  0.0000  0.0000  0.1940  0.0000  0.5820 </r>
       </set>
       <set comment="band 11">
        <r>  0.6310  0.0000  0.0000  0.1214  0.0000  0.0000  0.0099  0.0000  0.0298 </r>
       </set>
       <set comment="band 12">
        <r>  0.0000  0.0000  0.0000  0.0000  0.0000  0.2706  0.0000  0.0000  0.0000 </r>
       </set>
      </set>
     </set>
    </set>
   </array>
  </projected>
 </calculation>
 <structure name="finalpos" >
  <crystal>
   <varray name="basis" >
    <v>      -1.41250000       1.41250000       1.41250000 </v>
    <v>       1.41250000      -1.41250000       1.41250000 </v>
    <v>       1.41250000       1.41250000      -1.41250000 </v>
   </varray>
   <i name="volume">     11.27263281 </i>
   <varray name="rec_basis" >
    <v>       0.00000000       0.35398230       0.35398230 </v>
    <v>       0.35398230       0.00000000       0.35398230 </v>
    <v>       0.35398230       0.35398230       0.00000000 </v>
   </varray>
  </crystal>
  <varray name="positions" >
   <v>       0.00000000       0.00000000       0.00000000 </v>
  </varray>
 </structure>
</modeling>
