Fe BCC                                  
   2.85000000000000     
    -0.500000    0.500000    0.500000
     0.500000   -0.500000    0.500000
     0.500000    0.500000   -0.500000
   Fe
     1
Direct
  0.000000  0.000000  0.000000
 
   28   28   28
  98.135      95.138      86.727      74.422      60.168      45.802      32.753      21.965      13.940      8.7353    
  5.9532      4.7912      4.2724      3.9531      3.8451      3.9531      4.2724      4.7912      5.9532      8.7353    
  13.940      21.965      32.753      45.802      60.168      74.422      86.727      95.138      95.138      94.150    
  87.581      76.653      63.185      49.052      35.800      24.510      15.811      9.8994      6.5235      5.0034    
  4.3870      4.0083      3.8323      3.8677      4.1134      4.5534      5.3610      7.4036      11.571      18.411    
  28.023      40.066      53.761      67.868      80.701      90.351      86.727      87.581      83.101      74.139    
  62.253      49.216      36.595      25.546      16.789      10.624      6.9285      5.1544      4.4429      4.0251    
  3.7939      3.7614      3.9283      4.2890      4.8534      6.1743      9.1638      14.497      22.444      32.839    
  45.089      58.169      70.622      80.701      74.422      76.653      74.139      67.368      57.565      46.284    
  35.003      24.878      16.666      10.732      7.0496      5.1963      4.4326      3.9982      3.7304      3.6424    
  3.7352      4.0087      4.4505      5.2263      7.1076      10.849      16.883      25.229      35.495      46.875    
  58.169      67.868      60.168      63.185      62.253      57.565      50.002      40.835      31.365      22.669    
  15.485      10.199      6.8436      5.1015      4.3564      3.9270      3.6434      3.5177      3.5489      3.7386    
  4.0875      4.5917      5.6230      7.9258      12.054      18.215      26.221      35.495      45.089      53.761    
  45.802      49.052      49.216      46.284      40.835      33.840      26.376      19.379      13.518      9.1576    
  6.3592      4.8814      4.2217      3.8159      3.5364      3.3920      3.3792      3.4979      3.7543      4.1490    
  4.7150      5.9299      8.4013      12.490      18.215      25.229      32.839      40.066      32.753      35.800    
  36.595      35.003      31.365      26.376      20.870      15.611      11.165      7.8460      5.7148      4.5825    
  4.0434      3.6745      3.4151      3.2695      3.2311      3.2968      3.4730      3.7698      4.1859      4.7905    
  6.0454      8.4013      12.054      16.883      22.444      28.023      21.965      24.510      25.546      24.878    
  22.669      19.379      15.611      11.950      8.8375      6.5233      5.0506      4.2639      3.8384      3.5151    
  3.2869      3.1534      3.1055      3.1373      3.2524      3.4623      3.7784      4.1980      4.7905      5.9299    
  7.9258      10.849      14.497      18.411      13.940      15.811      16.789      16.666      15.485      13.518    
  11.165      8.8375      6.8556      5.3964      4.4789      3.9688      3.6239      3.3511      3.1602      3.0472    
  3.0016      3.0158      3.0900      3.2332      3.4593      3.7784      4.1859      4.7150      5.6230      7.1076    
  9.1638      11.571      8.7353      9.8994      10.624      10.732      10.199      9.1576      7.8460      6.5233    
  5.3964      4.5739      4.0487      3.7017      3.4160      3.1949      3.0429      2.9539      2.9177      2.9261    
  2.9770      3.0757      3.2332      3.4623      3.7698      4.1490      4.5917      5.2263      6.1743      7.4036    
  5.9532      6.5235      6.9285      7.0496      6.8436      6.3592      5.7148      5.0506      4.4789      4.0487    
  3.7293      3.4550      3.2276      3.0563      2.9413      2.8763      2.8526      2.8629      2.9037      2.9770    
  3.0900      3.2524      3.4730      3.7543      4.0875      4.4505      4.8534      5.3610      4.7912      5.0034    
  5.1544      5.1963      5.1015      4.8814      4.5825      4.2639      3.9688      3.7017      3.4550      3.2407    
  3.0684      2.9419      2.8597      2.8168      2.8064      2.8229      2.8629      2.9261      3.0158      3.1373    
  3.2968      3.4979      3.7386      4.0087      4.2890      4.5534      4.2724      4.3870      4.4429      4.4326    
  4.3564      4.2217      4.0434      3.8384      3.6239      3.4160      3.2276      3.0684      2.9437      2.8550    
  2.8007      2.7772      2.7804      2.8064      2.8526      2.9177      3.0016      3.1055      3.2311      3.3792    
  3.5489      3.7352      3.9283      4.1134      3.9531      4.0083      4.0251      3.9982      3.9270      3.8159    
  3.6745      3.5151      3.3511      3.1949      3.0563      2.9419      2.8550      2.7964      2.7651      2.7594    
  2.7772      2.8168      2.8763      2.9539      3.0472      3.1534      3.2695      3.3920      3.5177      3.6424    
  3.7614      3.8677      3.8451      3.8323      3.7939      3.7304      3.6434      3.5364      3.4151      3.2869    
  3.1602      3.0429      2.9413      2.8597      2.8007      2.7651      2.7533      2.7651      2.8007      2.8597    
  2.9413      3.0429      3.1602      3.2869      3.4151      3.5364      3.6434      3.7304      3.7939      3.8323    
  3.9531      3.8677      3.7614      3.6424      3.5177      3.3920      3.2695      3.1534      3.0472      2.9539    
  2.8763      2.8168      2.7772      2.7594      2.7651      2.7964      2.8550      2.9419      3.0563      3.1949    
  3.3511      3.5151      3.6745      3.8159      3.9270      3.9982      4.0251      4.0083      4.2724      4.1134    
  3.9283      3.7352      3.5489      3.3792      3.2311      3.1055      3.0016      2.9177      2.8526      2.8064    
  2.7804      2.7772      2.8007      2.8550      2.9437      3.0684      3.2276      3.4160      3.6239      3.8384    
  4.0434      4.2217      4.3564      4.4326      4.4429      4.3870      4.7912      4.5534      4.2890      4.0087    
  3.7386      3.4979      3.2968      3.1373      3.0158      2.9261      2.8629      2.8229      2.8064      2.8168    
  2.8597      2.9419      3.0684      3.2407      3.4550      3.7017      3.9688      4.2639      4.5825      4.8814    
  5.1015      5.1963      5.1544      5.0034      5.9532      5.3610      4.8534      4.4505      4.0875      3.7543    
  3.4730      3.2524      3.0900      2.9770      2.9037      2.8629      2.8526      2.8763      2.9413      3.0563    
  3.2276      3.4550      3.7293      4.0487      4.4789      5.0506      5.7148      6.3592      6.8436      7.0496    
  6.9285      6.5235      8.7353      7.4036      6.1743      5.2263      4.5917      4.1490      3.7698      3.4623    
  3.2332      3.0757      2.9770      2.9261      2.9177      2.9539      3.0429      3.1949      3.4160      3.7017    
  4.0487      4.5739      5.3964      6.5233      7.8460      9.1576      10.199      10.732      10.624      9.8994    
  13.940      11.571      9.1638      7.1076      5.6230      4.7150      4.1859      3.7784      3.4593      3.2332    
  3.0900      3.0158      3.0016      3.0472      3.1602      3.3511      3.6239      3.9688      4.4789      5.3964    
  6.8556      8.8375      11.165      13.518      15.485      16.666      16.789      15.811      21.965      18.411    
  14.497      10.849      7.9258      5.9299      4.7905      4.1980      3.7784      3.4623      3.2524      3.1373    
  3.1055      3.1534      3.2869      3.5151      3.8384      4.2639      5.0506      6.5233      8.8375      11.950    
  15.611      19.379      22.669      24.878      25.546      24.510      32.753      28.023      22.444      16.883    
  12.054      8.4013      6.0454      4.7905      4.1859      3.7698      3.4730      3.2968      3.2311      3.2695    
  3.4151      3.6745      4.0434      4.5825      5.7148      7.8460      11.165      15.611      20.870      26.376    
  31.365      35.003      36.595      35.800      45.802      40.066      32.839      25.229      18.215      12.490    
  8.4013      5.9299      4.7150      4.1490      3.7543      3.4979      3.3792      3.3920      3.5364      3.8159    
  4.2217      4.8814      6.3592      9.1576      13.518      19.379      26.376      33.840      40.835      46.284    
  49.216      49.052      60.168      53.761      45.089      35.495      26.221      18.215      12.054      7.9258    
  5.6230      4.5917      4.0875      3.7386      3.5489      3.5177      3.6434      3.9270      4.3564      5.1015    
  6.8436      10.199      15.485      22.669      31.365      40.835      50.002      57.565      62.253      63.185    
  74.422      67.868      58.169      46.875      35.495      25.229      16.883      10.849      7.1076      5.2263    
  4.4505      4.0087      3.7352      3.6424      3.7304      3.9982      4.4326      5.1963      7.0496      10.732    
  16.666      24.878      35.003      46.284      57.565      67.368      74.139      76.653      86.727      80.701    
  70.622      58.169      45.089      32.839      22.444      14.497      9.1638      6.1743      4.8534      4.2890    
  3.9283      3.7614      3.7939      4.0251      4.4429      5.1544      6.9285      10.624      16.789      25.546    
  36.595      49.216      62.253      74.139      83.101      87.581      95.138      90.351      80.701      67.868    
  53.761      40.066      28.023      18.411      11.571      7.4036      5.3610      4.5534      4.1134      3.8677    
  3.8323      4.0083      4.3870      5.0034      6.5235      9.8994      15.811      24.510      35.800      49.052    
  63.185      76.653      87.581      94.150      95.138      94.150      87.581      76.653      63.185      49.052    
  35.800      24.510      15.811      9.8994      6.5235      5.0034      4.3870      4.0083      3.8323      3.8677    
  4.1134      4.5534      5.3610      7.4036      11.571      18.411      28.023      40.066      53.761      67.868    
  80.701      90.351      94.150      95.138      90.351      80.701      67.868      53.761      40.066      28.023    
  18.411      11.571      7.4035      5.3610      4.5534      4.1134      3.8677      3.8323      4.0083      4.3870    
  5.0034      6.5236      9.8994      15.811      24.510      35.800      49.052      63.185      76.653      87.581    
  87.581      90.351      87.581      79.804      68.424      55.241      41.969      29.945      20.060      12.773    
  8.1132      5.6718      4.6639      4.1772      3.8748      3.7730      3.8748      4.1772      4.6639      5.6718    
  8.1133      12.773      20.060      29.945      41.969      55.241      68.424      79.804      76.653      80.701    
  79.804      74.139      64.756      53.222      41.155      29.906      20.420      13.231      8.4690      5.8486    
  4.7091      4.1899      3.8499      3.6942      3.7264      3.9466      4.3465      4.9864      6.5366      9.8333    
  15.428      23.467      33.678      45.372      57.447      68.424      63.185      67.868      68.424      64.756    
  57.565      48.107      37.809      27.938      19.429      12.844      8.3724      5.8281      4.6734      4.1476    
  3.7916      3.5996      3.5747      3.7170      4.0271      4.4925      5.3663      7.4115      11.279      17.286    
  25.353      35.004      45.372      55.241      49.052      53.761      55.241      53.222      48.107      40.835    
  32.580      24.454      17.318      11.711      7.8459      5.6027      4.5527      4.0529      3.7014      3.4930    
  3.4283      3.5053      3.7279      4.0973      4.6215      5.7178      8.0592      12.099      17.951      25.353    
  33.678      41.969      35.800      40.066      41.969      41.155      37.809      32.580      26.376      20.111    
  14.523      10.093      7.0203      5.2243      4.3636      3.9146      3.5850      3.3784      3.2922      3.3215    
  3.4693      3.7440      4.1459      4.7203      5.9296      8.2972      12.099      17.286      23.467      29.945    
  24.510      28.023      29.945      29.906      27.938      24.454      20.111      15.611      11.549      8.3180    
  6.0828      4.7807      4.1368      3.7460      3.4509      3.2605      3.1692      3.1692      3.2606      3.4525    
  3.7560      4.1698      4.7581      5.9296      8.0591      11.279      15.428      20.060      15.811      18.411    
  20.060      20.420      19.429      17.318      14.523      11.549      8.8376      6.6849      5.2117      4.3580    
  3.8988      3.5624      3.3095      3.1450      3.0607      3.0473      3.1016      3.2301      3.4459      3.7602    
  4.1698      4.7203      5.7178      7.4115      9.8333      12.773      9.8994      11.571      12.773      13.231    
  12.844      11.711      10.093      8.3180      6.6849      5.3964      4.5245      4.0057      3.6603      3.3791    
  3.1715      3.0373      2.9676      2.9521      2.9860      3.0721      3.2209      3.4460      3.7560      4.1459    
  4.6215      5.3663      6.5366      8.1132      6.5235      7.4035      8.1132      8.4690      8.3724      7.8459    
  7.0203      6.0828      5.2117      4.5245      4.0487      3.7152      3.4343      3.2088      3.0459      2.9427    
  2.8905      2.8801      2.9057      2.9675      3.0721      3.2301      3.4525      3.7440      4.0973      4.4925    
  4.9864      5.6718      5.0034      5.3610      5.6718      5.8486      5.8281      5.6027      5.2243      4.7807    
  4.3580      4.0057      3.7152      3.4550      3.2339      3.0613      2.9396      2.8651      2.8306      2.8288    
  2.8543      2.9057      2.9860      3.1016      3.2606      3.4693      3.7279      4.0271      4.3465      4.6639    
  4.3870      4.5534      4.6639      4.7091      4.6734      4.5527      4.3636      4.1368      3.8988      3.6603    
  3.4343      3.2339      3.0684      2.9426      2.8565      2.8071      2.7893      2.7978      2.8288      2.8801    
  2.9521      3.0473      3.1692      3.3215      3.5053      3.7170      3.9466      4.1772      4.0083      4.1134    
  4.1772      4.1899      4.1476      4.0529      3.9146      3.7460      3.5624      3.3791      3.2088      3.0613    
  2.9426      2.8550      2.7983      2.7704      2.7684      2.7893      2.8306      2.8905      2.9676      3.0607    
  3.1692      3.2922      3.4283      3.5747      3.7264      3.8748      3.8323      3.8677      3.8748      3.8499    
  3.7916      3.7014      3.5850      3.4509      3.3095      3.1715      3.0459      2.9396      2.8565      2.7983    
  2.7651      2.7561      2.7704      2.8071      2.8651      2.9427      3.0373      3.1450      3.2605      3.3784    
  3.4930      3.5996      3.6942      3.7730      3.8677      3.8323      3.7730      3.6942      3.5996      3.4930    
  3.3784      3.2605      3.1450      3.0373      2.9427      2.8651      2.8071      2.7704      2.7561      2.7651    
  2.7983      2.8565      2.9396      3.0459      3.1715      3.3095      3.4509      3.5850      3.7014      3.7916    
  3.8499      3.8748      4.1134      4.0083      3.8748      3.7264      3.5747      3.4283      3.2922      3.1692    
  3.0607      2.9676      2.8905      2.8306      2.7893      2.7684      2.7704      2.7983      2.8550      2.9426    
  3.0613      3.2088      3.3791      3.5624      3.7460      3.9146      4.0529      4.1476      4.1899      4.1772    
  4.5534      4.3870      4.1772      3.9466      3.7170      3.5053      3.3215      3.1692      3.0473      2.9521    
  2.8801      2.8288      2.7978      2.7893      2.8071      2.8565      2.9426      3.0684      3.2339      3.4343    
  3.6603      3.8988      4.1368      4.3636      4.5527      4.6734      4.7091      4.6639      5.3610      5.0034    
  4.6639      4.3465      4.0271      3.7279      3.4693      3.2606      3.1016      2.9860      2.9057      2.8543    
  2.8288      2.8306      2.8651      2.9396      3.0613      3.2339      3.4550      3.7152      4.0057      4.3580    
  4.7807      5.2243      5.6027      5.8281      5.8486      5.6718      7.4036      6.5236      5.6718      4.9864    
  4.4925      4.0973      3.7440      3.4525      3.2301      3.0721      2.9675      2.9057      2.8801      2.8905    
  2.9427      3.0459      3.2088      3.4343      3.7152      4.0487      4.5245      5.2117      6.0827      7.0203    
  7.8458      8.3724      8.4690      8.1132      11.571      9.8994      8.1133      6.5366      5.3663      4.6215    
  4.1459      3.7560      3.4459      3.2209      3.0721      2.9860      2.9521      2.9676      3.0373      3.1715    
  3.3791      3.6603      4.0057      4.5245      5.3964      6.6849      8.3180      10.093      11.711      12.844    
  13.231      12.773      18.411      15.811      12.773      9.8333      7.4115      5.7178      4.7203      4.1698    
  3.7602      3.4460      3.2301      3.1016      3.0473      3.0607      3.1450      3.3095      3.5624      3.8988    
  4.3580      5.2117      6.6849      8.8375      11.549      14.523      17.318      19.429      20.420      20.060    
  28.023      24.510      20.060      15.428      11.279      8.0592      5.9296      4.7581      4.1698      3.7560    
  3.4525      3.2606      3.1692      3.1692      3.2605      3.4509      3.7460      4.1368      4.7807      6.0827    
  8.3180      11.549      15.611      20.111      24.454      27.938      29.906      29.945      40.066      35.800    
  29.945      23.467      17.286      12.099      8.2972      5.9296      4.7203      4.1459      3.7440      3.4693    
  3.3215      3.2922      3.3784      3.5850      3.9146      4.3636      5.2243      7.0203      10.093      14.523    
  20.111      26.376      32.580      37.809      41.155      41.969      53.761      49.052      41.969      33.678    
  25.353      17.951      12.099      8.0591      5.7178      4.6215      4.0973      3.7279      3.5053      3.4283    
  3.4930      3.7014      4.0529      4.5527      5.6027      7.8458      11.711      17.318      24.454      32.580    
  40.835      48.107      53.222      55.241      67.868      63.185      55.241      45.372      35.004      25.353    
  17.286      11.279      7.4115      5.3663      4.4925      4.0271      3.7170      3.5747      3.5996      3.7916    
  4.1476      4.6734      5.8281      8.3724      12.844      19.429      27.938      37.809      48.107      57.565    
  64.756      68.424      80.701      76.653      68.424      57.447      45.372      33.678      23.467      15.428    
  9.8333      6.5366      4.9864      4.3465      3.9466      3.7264      3.6942      3.8499      4.1899      4.7091    
  5.8486      8.4690      13.231      20.420      29.906      41.155      53.222      64.756      74.139      79.804    
  90.351      87.581      79.804      68.424      55.241      41.969      29.945      20.060      12.773      8.1132    
  5.6718      4.6639      4.1772      3.8748      3.7730      3.8748      4.1772      4.6639      5.6718      8.1132    
  12.773      20.060      29.945      41.969      55.241      68.424      79.804      87.581      86.727      87.581    
  83.101      74.139      62.253      49.216      36.595      25.546      16.789      10.624      6.9285      5.1544    
  4.4429      4.0251      3.7939      3.7614      3.9283      4.2890      4.8534      6.1743      9.1638      14.497    
  22.444      32.839      45.089      58.169      70.622      80.701      87.581      90.351      87.581      79.804    
  68.424      55.241      41.969      29.945      20.060      12.773      8.1132      5.6718      4.6639      4.1772    
  3.8748      3.7730      3.8748      4.1772      4.6639      5.6718      8.1133      12.773      20.060      29.945    
  41.969      55.241      68.424      79.804      83.101      87.581      86.727      80.701      70.622      58.169    
  45.089      32.839      22.444      14.497      9.1638      6.1743      4.8534      4.2890      3.9283      3.7614    
  3.7939      4.0251      4.4429      5.1544      6.9286      10.625      16.789      25.546      36.595      49.216    
  62.253      74.139      74.139      79.804      80.701      76.653      68.424      57.447      45.372      33.678    
  23.467      15.428      9.8333      6.5366      4.9864      4.3465      3.9466      3.7264      3.6942      3.8499    
  4.1899      4.7091      5.8486      8.4690      13.231      20.420      29.906      41.155      53.222      64.756    
  62.253      68.424      70.622      68.424      62.253      53.222      42.775      32.309      22.929      15.363    
  9.9540      6.6516      5.0235      4.3418      3.9242      3.6684      3.5833      3.6684      3.9242      4.3418    
  5.0235      6.6516      9.9540      15.363      22.929      32.309      42.775      53.222      49.216      55.241    
  58.169      57.447      53.222      46.284      37.809      29.024      20.959      14.328      9.4962      6.4775    
  4.9408      4.2746      3.8602      3.5884      3.4673      3.4940      3.6698      3.9971      4.4663      5.3565    
  7.3604      11.019      16.555      23.822      32.309      41.155      36.595      41.969      45.089      45.372    
  42.775      37.809      31.365      24.454      17.971      12.562      8.5748      6.0547      4.7476      4.1518    
  3.7584      3.4897      3.3506      3.3356      3.4442      3.6829      4.0539      4.5686      5.6154      7.7740    
  11.405      16.555      22.929      29.906      25.546      29.945      32.839      33.678      32.309      29.024    
  24.454      19.379      14.523      10.431      7.4032      5.4872      4.4835      3.9860      3.6273      3.3772    
  3.2367      3.1976      3.2565      3.4191      3.6959      4.0881      4.6301      5.7131      7.7740      11.019    
  15.363      20.420      16.789      20.060      22.444      23.467      22.929      20.959      17.971      14.523    
  11.165      8.3180      6.2188      4.9003      4.1988      3.7933      3.4786      3.2580      3.1287      3.0808    
  3.1079      3.2131      3.4077      3.7032      4.0993      4.6301      5.6154      7.3604      9.9540      13.231    
  10.624      12.773      14.497      15.428      15.363      14.328      12.562      10.431      8.3180      6.5233    
  5.2117      4.3934      3.9280      3.5904      3.3248      3.1398      3.0298      2.9842      2.9950      3.0622    
  3.1942      3.4044      3.7032      4.0881      4.5686      5.3565      6.6516      8.4690      6.9285      8.1132    
  9.1638      9.8333      9.9540      9.4962      8.5748      7.4032      6.2188      5.2117      4.4789      4.0057    
  3.6722      3.3928      3.1778      3.0301      2.9431      2.9064      2.9121      2.9578      3.0483      3.1942    
  3.4077      3.6959      4.0539      4.4663      5.0235      5.8486      5.1544      5.6718      6.1743      6.5366    
  6.6516      6.4775      6.0547      5.4872      4.9003      4.3934      4.0057      3.7017      3.4343      3.2134    
  3.0471      2.9351      2.8711      2.8465      2.8541      2.8906      2.9578      3.0622      3.2131      3.4191    
  3.6829      3.9971      4.3418      4.7091      4.4429      4.6639      4.8534      4.9864      5.0235      4.9408    
  4.7476      4.4835      4.1988      3.9280      3.6722      3.4343      3.2276      3.0613      2.9389      2.8588    
  2.8161      2.8043      2.8181      2.8541      2.9121      2.9950      3.1079      3.2565      3.4442      3.6698    
  3.9242      4.1899      4.0251      4.1772      4.2890      4.3465      4.3418      4.2746      4.1518      3.9860    
  3.7933      3.5904      3.3928      3.2134      3.0613      2.9419      2.8565      2.8036      2.7799      2.7813    
  2.8043      2.8465      2.9064      2.9842      3.0808      3.1976      3.3356      3.4940      3.6684      3.8499    
  3.7939      3.8748      3.9283      3.9466      3.9242      3.8602      3.7584      3.6273      3.4786      3.3248    
  3.1778      3.0471      2.9389      2.8565      2.8007      2.7704      2.7641      2.7799      2.8161      2.8711    
  2.9431      3.0298      3.1287      3.2367      3.3506      3.4673      3.5833      3.6942      3.7614      3.7730    
  3.7614      3.7264      3.6684      3.5884      3.4897      3.3772      3.2580      3.1398      3.0301      2.9351    
  2.8588      2.8036      2.7704      2.7594      2.7704      2.8036      2.8588      2.9351      3.0301      3.1398    
  3.2580      3.3772      3.4897      3.5884      3.6684      3.7264      3.9283      3.8748      3.7939      3.6942    
  3.5833      3.4673      3.3506      3.2367      3.1287      3.0298      2.9431      2.8711      2.8161      2.7799    
  2.7641      2.7704      2.8007      2.8565      2.9389      3.0471      3.1778      3.3248      3.4786      3.6273    
  3.7584      3.8602      3.9242      3.9466      4.2890      4.1772      4.0251      3.8499      3.6684      3.4940    
  3.3356      3.1976      3.0808      2.9842      2.9064      2.8465      2.8043      2.7813      2.7799      2.8036    
  2.8565      2.9419      3.0613      3.2134      3.3928      3.5904      3.7933      3.9860      4.1517      4.2746    
  4.3418      4.3465      4.8534      4.6639      4.4429      4.1899      3.9242      3.6698      3.4442      3.2565    
  3.1079      2.9950      2.9121      2.8541      2.8181      2.8043      2.8161      2.8588      2.9389      3.0613    
  3.2276      3.4343      3.6722      3.9280      4.1988      4.4835      4.7476      4.9408      5.0235      4.9864    
  6.1743      5.6718      5.1544      4.7091      4.3418      3.9971      3.6829      3.4191      3.2131      3.0622    
  2.9578      2.8906      2.8541      2.8465      2.8711      2.9351      3.0471      3.2134      3.4343      3.7017    
  4.0057      4.3934      4.9003      5.4872      6.0547      6.4775      6.6516      6.5366      9.1638      8.1133    
  6.9286      5.8486      5.0235      4.4663      4.0539      3.6959      3.4077      3.1942      3.0483      2.9578    
  2.9121      2.9064      2.9431      3.0301      3.1778      3.3928      3.6722      4.0057      4.4789      5.2117    
  6.2188      7.4032      8.5747      9.4962      9.9540      9.8333      14.497      12.773      10.625      8.4690    
  6.6516      5.3565      4.5686      4.0881      3.7032      3.4044      3.1942      3.0622      2.9950      2.9842    
  3.0298      3.1398      3.3248      3.5904      3.9280      4.3934      5.2117      6.5232      8.3180      10.431    
  12.562      14.328      15.363      15.428      22.444      20.060      16.789      13.231      9.9540      7.3604    
  5.6154      4.6301      4.0993      3.7032      3.4077      3.2131      3.1079      3.0808      3.1287      3.2580    
  3.4786      3.7933      4.1988      4.9003      6.2188      8.3180      11.165      14.523      17.971      20.959    
  22.929      23.467      32.839      29.945      25.546      20.420      15.363      11.019      7.7740      5.7131    
  4.6301      4.0881      3.6959      3.4191      3.2565      3.1976      3.2367      3.3772      3.6273      3.9860    
  4.4835      5.4872      7.4032      10.431      14.523      19.379      24.454      29.024      32.309      33.678    
  45.089      41.969      36.595      29.906      22.929      16.555      11.405      7.7740      5.6154      4.5686    
  4.0539      3.6829      3.4442      3.3356      3.3506      3.4897      3.7584      4.1517      4.7476      6.0547    
  8.5747      12.562      17.971      24.454      31.365      37.809      42.775      45.372      58.169      55.241    
  49.216      41.155      32.309      23.822      16.555      11.019      7.3604      5.3565      4.4663      3.9971    
  3.6698      3.4940      3.4673      3.5884      3.8602      4.2746      4.9408      6.4775      9.4962      14.328    
  20.959      29.024      37.809      46.284      53.222      57.447      70.622      68.424      62.253      53.222    
  42.775      32.309      22.929      15.363      9.9540      6.6516      5.0235      4.3418      3.9242      3.6684    
  3.5833      3.6684      3.9242      4.3418      5.0235      6.6516      9.9540      15.363      22.929      32.309    
  42.775      53.222      62.253      68.424      80.701      79.804      74.139      64.756      53.222      41.155    
  29.906      20.420      13.231      8.4690      5.8486      4.7091      4.1899      3.8499      3.6942      3.7264    
  3.9466      4.3465      4.9864      6.5366      9.8333      15.428      23.467      33.678      45.372      57.447    
  68.424      76.653      74.422      76.653      74.139      67.368      57.565      46.284      35.003      24.878    
  16.666      10.732      7.0496      5.1963      4.4326      3.9982      3.7304      3.6424      3.7352      4.0087    
  4.4505      5.2263      7.1076      10.849      16.883      25.229      35.495      46.875      58.169      67.868    
  76.653      80.701      79.804      74.139      64.756      53.222      41.155      29.906      20.420      13.231    
  8.4690      5.8486      4.7091      4.1899      3.8499      3.6942      3.7264      3.9466      4.3465      4.9864    
  6.5366      9.8333      15.428      23.467      33.678      45.372      57.447      68.424      74.139      79.804    
  80.701      76.653      68.424      57.447      45.372      33.678      23.467      15.428      9.8333      6.5366    
  4.9864      4.3465      3.9466      3.7264      3.6942      3.8499      4.1899      4.7091      5.8486      8.4690    
  13.231      20.420      29.906      41.155      53.222      64.756      67.368      74.139      76.653      74.422    
  67.868      58.169      46.875      35.495      25.229      16.883      10.849      7.1076      5.2263      4.4505    