Fe BCC                                  
   2.85000000000000     
    -0.500000    0.500000    0.500000
     0.500000   -0.500000    0.500000
     0.500000    0.500000   -0.500000
   Fe
     1
Direct
  0.000000  0.000000  0.000000
 
   28   28   28
 0.98134764149E+02 0.95137807832E+02 0.86726572937E+02 0.74422141830E+02 0.60167828584E+02
 0.45802340688E+02 0.32752569327E+02 0.21965220274E+02 0.13939679020E+02 0.87352827348E+01
 0.59531682024E+01 0.47911941378E+01 0.42723605065E+01 0.39530739845E+01 0.38450989498E+01
 0.39530739845E+01 0.42723605065E+01 0.47911941378E+01 0.59531682024E+01 0.87352827348E+01
 0.13939679020E+02 0.21965220274E+02 0.32752569327E+02 0.45802340688E+02 0.60167828584E+02
 0.74422141830E+02 0.86726572937E+02 0.95137807832E+02 0.95137807832E+02 0.94150258974E+02
 0.87580993861E+02 0.76652957037E+02 0.63185248464E+02 0.49052236852E+02 0.35800023933E+02
 0.24509785825E+02 0.15810643757E+02 0.98993635741E+01 0.65235464076E+01 0.50033760729E+01
 0.43870122346E+01 0.40082986121E+01 0.38322842442E+01 0.38677006741E+01 0.41134109364E+01
 0.45534346359E+01 0.53610272221E+01 0.74035596961E+01 0.11571052252E+02 0.18410705580E+02
 0.28023287085E+02 0.40066048472E+02 0.53761222482E+02 0.67867595608E+02 0.80701113411E+02
 0.90351186220E+02 0.86726572937E+02 0.87580993861E+02 0.83101039239E+02 0.74138595823E+02
 0.62252718202E+02 0.49216130816E+02 0.36595127597E+02 0.25546162777E+02 0.16788740046E+02
 0.10624487488E+02 0.69285441216E+01 0.51544221418E+01 0.44429139241E+01 0.40251158979E+01
 0.37938951544E+01 0.37613617132E+01 0.39283163200E+01 0.42889613411E+01 0.48533960545E+01
 0.61742757204E+01 0.91637754630E+01 0.14496733107E+02 0.22443983987E+02 0.32838686903E+02
 0.45089001355E+02 0.58168931206E+02 0.70622055078E+02 0.80701113411E+02 0.74422141830E+02
 0.76652957037E+02 0.74138595823E+02 0.67368253930E+02 0.57564996051E+02 0.46283832522E+02
 0.35003387762E+02 0.24878191546E+02 0.16665889591E+02 0.10732307058E+02 0.70496322089E+01
 0.51962937753E+01 0.44325542692E+01 0.39982302644E+01 0.37303973478E+01 0.36424494593E+01
 0.37351857960E+01 0.40086797047E+01 0.44504597977E+01 0.52263340689E+01 0.71076273792E+01
 0.10849346764E+02 0.16882808581E+02 0.25229364030E+02 0.35494738847E+02 0.46875393390E+02
 0.58168931206E+02 0.67867595608E+02 0.60167828584E+02 0.63185248464E+02 0.62252718202E+02
 0.57564996051E+02 0.50002128081E+02 0.40834552282E+02 0.31365146346E+02 0.22669219820E+02
 0.15485180051E+02 0.10198862080E+02 0.68436251291E+01 0.51014620719E+01 0.43563891489E+01
 0.39269668122E+01 0.36433993791E+01 0.35176705392E+01 0.35488656696E+01 0.37385604588E+01
 0.40875427055E+01 0.45916757966E+01 0.56230051944E+01 0.79257719659E+01 0.12054181750E+02
 0.18214775249E+02 0.26220857571E+02 0.35494738847E+02 0.45089001355E+02 0.53761222482E+02
 0.45802340688E+02 0.49052236852E+02 0.49216130816E+02 0.46283832522E+02 0.40834552282E+02
 0.33839900910E+02 0.26375794407E+02 0.19378794792E+02 0.13517546909E+02 0.91576254215E+01
 0.63592417566E+01 0.48813662386E+01 0.42217484584E+01 0.38159418370E+01 0.35363964041E+01
 0.33920487188E+01 0.33792054014E+01 0.34978671607E+01 0.37543328915E+01 0.41489571132E+01
 0.47150418239E+01 0.59299475480E+01 0.84012517123E+01 0.12489770119E+02 0.18214775249E+02
 0.25229364030E+02 0.32838686903E+02 0.40066048472E+02 0.32752569327E+02 0.35800023933E+02
 0.36595127597E+02 0.35003387762E+02 0.31365146346E+02 0.26375794407E+02 0.20869733540E+02
 0.15611369423E+02 0.11164900255E+02 0.78459614475E+01 0.57147804496E+01 0.45824783915E+01
 0.40434363899E+01 0.36744941566E+01 0.34150737492E+01 0.32694956113E+01 0.32310566704E+01
 0.32968181408E+01 0.34730186088E+01 0.37697559730E+01 0.41859440259E+01 0.47904679444E+01
 0.60453959992E+01 0.84012517123E+01 0.12054181750E+02 0.16882808581E+02 0.22443983987E+02
 0.28023287085E+02 0.21965220274E+02 0.24509785825E+02 0.25546162777E+02 0.24878191546E+02
 0.22669219820E+02 0.19378794792E+02 0.15611369423E+02 0.11949945816E+02 0.88375398166E+01
 0.65232514908E+01 0.50505792903E+01 0.42639491638E+01 0.38384142054E+01 0.35150698617E+01
 0.32869218506E+01 0.31534469861E+01 0.31055138711E+01 0.31373344450E+01 0.32523924586E+01
 0.34622917584E+01 0.37784382371E+01 0.41980345165E+01 0.47904679444E+01 0.59299475480E+01
 0.79257719659E+01 0.10849346764E+02 0.14496733107E+02 0.18410705580E+02 0.13939679020E+02
 0.15810643757E+02 0.16788740046E+02 0.16665889591E+02 0.15485180051E+02 0.13517546909E+02
 0.11164900255E+02 0.88375398166E+01 0.68555955093E+01 0.53963892023E+01 0.44789396173E+01
 0.39688218163E+01 0.36239361488E+01 0.33510874000E+01 0.31602419984E+01 0.30471989782E+01
 0.30015858744E+01 0.30157546133E+01 0.30899832348E+01 0.32332419527E+01 0.34593308439E+01
 0.37784382371E+01 0.41859440259E+01 0.47150418239E+01 0.56230051944E+01 0.71076273792E+01
 0.91637754630E+01 0.11571052252E+02 0.87352827348E+01 0.98993635741E+01 0.10624487488E+02
 0.10732307058E+02 0.10198862080E+02 0.91576254215E+01 0.78459614475E+01 0.65232514908E+01
 0.53963892023E+01 0.45738963909E+01 0.40487182903E+01 0.37016986181E+01 0.34159583643E+01
 0.31948990734E+01 0.30429000618E+01 0.29538870018E+01 0.29176759613E+01 0.29260996827E+01
 0.29770224248E+01 0.30756859428E+01 0.32332419527E+01 0.34622917584E+01 0.37697559730E+01
 0.41489571132E+01 0.45916757966E+01 0.52263340689E+01 0.61742757204E+01 0.74035596961E+01
 0.59531682024E+01 0.65235464076E+01 0.69285441216E+01 0.70496322089E+01 0.68436251291E+01
 0.63592417566E+01 0.57147804496E+01 0.50505792903E+01 0.44789396173E+01 0.40487182903E+01
 0.37293365593E+01 0.34549524125E+01 0.32276257436E+01 0.30563159504E+01 0.29412755531E+01
 0.28762978052E+01 0.28526360172E+01 0.28628665729E+01 0.29036540735E+01 0.29770224248E+01
 0.30899832348E+01 0.32523924586E+01 0.34730186088E+01 0.37543328915E+01 0.40875427055E+01
 0.44504597977E+01 0.48533960545E+01 0.53610272221E+01 0.47911941378E+01 0.50033760729E+01
 0.51544221418E+01 0.51962937753E+01 0.51014620719E+01 0.48813662386E+01 0.45824783915E+01
 0.42639491638E+01 0.39688218163E+01 0.37016986181E+01 0.34549524125E+01 0.32407175401E+01
 0.30684135803E+01 0.29419031389E+01 0.28597313809E+01 0.28167529108E+01 0.28064134853E+01
 0.28229212656E+01 0.28628665729E+01 0.29260996827E+01 0.30157546133E+01 0.31373344450E+01
 0.32968181408E+01 0.34978671607E+01 0.37385604588E+01 0.40086797047E+01 0.42889613411E+01
 0.45534346359E+01 0.42723605065E+01 0.43870122346E+01 0.44429139241E+01 0.44325542692E+01
 0.43563891489E+01 0.42217484584E+01 0.40434363899E+01 0.38384142054E+01 0.36239361488E+01
 0.34159583643E+01 0.32276257436E+01 0.30684135803E+01 0.29437168998E+01 0.28550180932E+01
 0.28006840821E+01 0.27771838835E+01 0.27803535300E+01 0.28064134853E+01 0.28526360172E+01
 0.29176759613E+01 0.30015858744E+01 0.31055138711E+01 0.32310566704E+01 0.33792054014E+01
 0.35488656696E+01 0.37351857960E+01 0.39283163200E+01 0.41134109364E+01 0.39530739845E+01
 0.40082986121E+01 0.40251158979E+01 0.39982302644E+01 0.39269668122E+01 0.38159418370E+01
 0.36744941566E+01 0.35150698617E+01 0.33510874000E+01 0.31948990734E+01 0.30563159504E+01
 0.29419031389E+01 0.28550180932E+01 0.27964108211E+01 0.27651185723E+01 0.27593600382E+01
 0.27771838835E+01 0.28167529108E+01 0.28762978052E+01 0.29538870018E+01 0.30471989782E+01
 0.31534469861E+01 0.32694956113E+01 0.33920487188E+01 0.35176705392E+01 0.36424494593E+01
 0.37613617132E+01 0.38677006741E+01 0.38450989498E+01 0.38322842442E+01 0.37938951544E+01
 0.37303973478E+01 0.36433993791E+01 0.35363964041E+01 0.34150737492E+01 0.32869218506E+01
 0.31602419984E+01 0.30429000618E+01 0.29412755531E+01 0.28597313809E+01 0.28006840821E+01
 0.27651185723E+01 0.27532609409E+01 0.27651185723E+01 0.28006840821E+01 0.28597313809E+01
 0.29412755531E+01 0.30429000618E+01 0.31602419984E+01 0.32869218506E+01 0.34150737492E+01
 0.35363964041E+01 0.36433993791E+01 0.37303973478E+01 0.37938951544E+01 0.38322842442E+01
 0.39530739845E+01 0.38677006741E+01 0.37613617132E+01 0.36424494593E+01 0.35176705392E+01
 0.33920487188E+01 0.32694956113E+01 0.31534469861E+01 0.30471989782E+01 0.29538870018E+01
 0.28762978052E+01 0.28167529108E+01 0.27771838835E+01 0.27593600382E+01 0.27651185723E+01
 0.27964108211E+01 0.28550180932E+01 0.29419031389E+01 0.30563159504E+01 0.31948990734E+01
 0.33510874000E+01 0.35150698617E+01 0.36744941566E+01 0.38159418370E+01 0.39269668122E+01
 0.39982302644E+01 0.40251158979E+01 0.40082986121E+01 0.42723605065E+01 0.41134109364E+01
 0.39283163200E+01 0.37351857960E+01 0.35488656696E+01 0.33792054014E+01 0.32310566704E+01
 0.31055138711E+01 0.30015858744E+01 0.29176759613E+01 0.28526360172E+01 0.28064134853E+01
 0.27803535300E+01 0.27771838835E+01 0.28006840821E+01 0.28550180932E+01 0.29437168998E+01
 0.30684135803E+01 0.32276257436E+01 0.34159583643E+01 0.36239361488E+01 0.38384142054E+01
 0.40434363899E+01 0.42217484584E+01 0.43563891489E+01 0.44325542692E+01 0.44429139241E+01
 0.43870122346E+01 0.47911941378E+01 0.45534346359E+01 0.42889613411E+01 0.40086797047E+01
 0.37385604588E+01 0.34978671607E+01 0.32968181408E+01 0.31373344450E+01 0.30157546133E+01
 0.29260996827E+01 0.28628665729E+01 0.28229212656E+01 0.28064134853E+01 0.28167529108E+01
 0.28597313809E+01 0.29419031389E+01 0.30684135803E+01 0.32407175401E+01 0.34549524125E+01
 0.37016986181E+01 0.39688218163E+01 0.42639491638E+01 0.45824783915E+01 0.48813662386E+01
 0.51014620719E+01 0.51962937753E+01 0.51544221418E+01 0.50033760729E+01 0.59531682024E+01
 0.53610272221E+01 0.48533960545E+01 0.44504597977E+01 0.40875427055E+01 0.37543328915E+01
 0.34730186088E+01 0.32523924586E+01 0.30899832348E+01 0.29770224248E+01 0.29036540735E+01
 0.28628665729E+01 0.28526360172E+01 0.28762978052E+01 0.29412755531E+01 0.30563159504E+01
 0.32276257436E+01 0.34549524125E+01 0.37293365593E+01 0.40487182903E+01 0.44789396173E+01
 0.50505792903E+01 0.57147804496E+01 0.63592417566E+01 0.68436251291E+01 0.70496322089E+01
 0.69285441216E+01 0.65235464076E+01 0.87352827348E+01 0.74035596961E+01 0.61742757204E+01
 0.52263340689E+01 0.45916757966E+01 0.41489571132E+01 0.37697559730E+01 0.34622917584E+01
 0.32332419527E+01 0.30756859428E+01 0.29770224248E+01 0.29260996827E+01 0.29176759613E+01
 0.29538870018E+01 0.30429000618E+01 0.31948990734E+01 0.34159583643E+01 0.37016986181E+01
 0.40487182903E+01 0.45738963909E+01 0.53963892023E+01 0.65232514908E+01 0.78459614475E+01
 0.91576254215E+01 0.10198862080E+02 0.10732307058E+02 0.10624487488E+02 0.98993635741E+01
 0.13939679020E+02 0.11571052252E+02 0.91637754630E+01 0.71076273792E+01 0.56230051944E+01
 0.47150418239E+01 0.41859440259E+01 0.37784382371E+01 0.34593308439E+01 0.32332419527E+01
 0.30899832348E+01 0.30157546133E+01 0.30015858744E+01 0.30471989782E+01 0.31602419984E+01
 0.33510874000E+01 0.36239361488E+01 0.39688218163E+01 0.44789396173E+01 0.53963892023E+01
 0.68555955093E+01 0.88375398166E+01 0.11164900255E+02 0.13517546909E+02 0.15485180051E+02
 0.16665889591E+02 0.16788740046E+02 0.15810643757E+02 0.21965220274E+02 0.18410705580E+02
 0.14496733107E+02 0.10849346764E+02 0.79257719659E+01 0.59299475480E+01 0.47904679444E+01
 0.41980345165E+01 0.37784382371E+01 0.34622917584E+01 0.32523924586E+01 0.31373344450E+01
 0.31055138711E+01 0.31534469861E+01 0.32869218506E+01 0.35150698617E+01 0.38384142054E+01
 0.42639491638E+01 0.50505792903E+01 0.65232514908E+01 0.88375398166E+01 0.11949945816E+02
 0.15611369423E+02 0.19378794792E+02 0.22669219820E+02 0.24878191546E+02 0.25546162777E+02
 0.24509785825E+02 0.32752569327E+02 0.28023287085E+02 0.22443983987E+02 0.16882808581E+02
 0.12054181750E+02 0.84012517123E+01 0.60453959992E+01 0.47904679444E+01 0.41859440259E+01
 0.37697559730E+01 0.34730186088E+01 0.32968181408E+01 0.32310566704E+01 0.32694956113E+01
 0.34150737492E+01 0.36744941566E+01 0.40434363899E+01 0.45824783915E+01 0.57147804496E+01
 0.78459614475E+01 0.11164900255E+02 0.15611369423E+02 0.20869733540E+02 0.26375794407E+02
 0.31365146346E+02 0.35003387762E+02 0.36595127597E+02 0.35800023933E+02 0.45802340688E+02
 0.40066048472E+02 0.32838686903E+02 0.25229364030E+02 0.18214775249E+02 0.12489770119E+02
 0.84012517123E+01 0.59299475480E+01 0.47150418239E+01 0.41489571132E+01 0.37543328915E+01
 0.34978671607E+01 0.33792054014E+01 0.33920487188E+01 0.35363964041E+01 0.38159418370E+01
 0.42217484584E+01 0.48813662386E+01 0.63592417566E+01 0.91576254215E+01 0.13517546909E+02
 0.19378794792E+02 0.26375794407E+02 0.33839900910E+02 0.40834552282E+02 0.46283832522E+02
 0.49216130816E+02 0.49052236852E+02 0.60167828584E+02 0.53761222482E+02 0.45089001355E+02
 0.35494738847E+02 0.26220857571E+02 0.18214775249E+02 0.12054181750E+02 0.79257719659E+01
 0.56230051944E+01 0.45916757966E+01 0.40875427055E+01 0.37385604588E+01 0.35488656696E+01
 0.35176705392E+01 0.36433993791E+01 0.39269668122E+01 0.43563891489E+01 0.51014620719E+01
 0.68436251291E+01 0.10198862080E+02 0.15485180051E+02 0.22669219820E+02 0.31365146346E+02
 0.40834552282E+02 0.50002128081E+02 0.57564996051E+02 0.62252718202E+02 0.63185248464E+02
 0.74422141830E+02 0.67867595608E+02 0.58168931206E+02 0.46875393390E+02 0.35494738847E+02
 0.25229364030E+02 0.16882808581E+02 0.10849346764E+02 0.71076273792E+01 0.52263340689E+01
 0.44504597977E+01 0.40086797047E+01 0.37351857960E+01 0.36424494593E+01 0.37303973478E+01
 0.39982302644E+01 0.44325542692E+01 0.51962937753E+01 0.70496322089E+01 0.10732307058E+02
 0.16665889591E+02 0.24878191546E+02 0.35003387762E+02 0.46283832522E+02 0.57564996051E+02
 0.67368253930E+02 0.74138595823E+02 0.76652957037E+02 0.86726572937E+02 0.80701113411E+02
 0.70622055078E+02 0.58168931206E+02 0.45089001355E+02 0.32838686903E+02 0.22443983987E+02
 0.14496733107E+02 0.91637754630E+01 0.61742757204E+01 0.48533960545E+01 0.42889613411E+01
 0.39283163200E+01 0.37613617132E+01 0.37938951544E+01 0.40251158979E+01 0.44429139241E+01
 0.51544221418E+01 0.69285441216E+01 0.10624487488E+02 0.16788740046E+02 0.25546162777E+02
 0.36595127597E+02 0.49216130816E+02 0.62252718202E+02 0.74138595823E+02 0.83101039239E+02
 0.87580993861E+02 0.95137807832E+02 0.90351186220E+02 0.80701113411E+02 0.67867595608E+02
 0.53761222482E+02 0.40066048472E+02 0.28023287085E+02 0.18410705580E+02 0.11571052252E+02
 0.74035596961E+01 0.53610272221E+01 0.45534346359E+01 0.41134109364E+01 0.38677006741E+01
 0.38322842442E+01 0.40082986121E+01 0.43870122346E+01 0.50033760729E+01 0.65235464076E+01
 0.98993635741E+01 0.15810643757E+02 0.24509785825E+02 0.35800023933E+02 0.49052236852E+02
 0.63185248464E+02 0.76652957037E+02 0.87580993861E+02 0.94150258974E+02 0.95137807832E+02
 0.94150258974E+02 0.87580993861E+02 0.76652957037E+02 0.63185248464E+02 0.49052236852E+02
 0.35800023933E+02 0.24509785825E+02 0.15810643757E+02 0.98993635741E+01 0.65235464076E+01
 0.50033760729E+01 0.43870122346E+01 0.40082986121E+01 0.38322842442E+01 0.38677006741E+01
 0.41134109364E+01 0.45534346359E+01 0.53610272221E+01 0.74035596961E+01 0.11571052252E+02
 0.18410705580E+02 0.28023287085E+02 0.40066048472E+02 0.53761222482E+02 0.67867595608E+02
 0.80701113411E+02 0.90351186220E+02 0.94150258974E+02 0.95137799432E+02 0.90351169467E+02
 0.80701088453E+02 0.67867563241E+02 0.53761184712E+02 0.40066008665E+02 0.28023249533E+02
 0.18410674540E+02 0.11571030735E+02 0.74035485357E+01 0.53610247932E+01 0.45534374201E+01
 0.41134147783E+01 0.38677022802E+01 0.38322823794E+01 0.40082945285E+01 0.43870091815E+01
 0.50033780641E+01 0.65235567266E+01 0.98993835603E+01 0.15810672308E+02 0.24509819738E+02
 0.35800058892E+02 0.49052268633E+02 0.63185273874E+02 0.76652974306E+02 0.87581002447E+02
 0.87580993861E+02 0.90351169467E+02 0.87580978120E+02 0.79804213593E+02 0.68424277469E+02
 0.55241216231E+02 0.41968545287E+02 0.29945015857E+02 0.20060146107E+02 0.12772827176E+02
 0.81132379455E+01 0.56717965139E+01 0.46638963835E+01 0.41771706090E+01 0.38747974511E+01
 0.37730048721E+01 0.38747924014E+01 0.41771641671E+01 0.46638945616E+01 0.56718055555E+01
 0.81132621510E+01 0.12772867437E+02 0.20060199602E+02 0.29945076908E+02 0.41968606954E+02
 0.55241271986E+02 0.68424322362E+02 0.79804244615E+02 0.76652957037E+02 0.80701088453E+02
 0.79804213593E+02 0.74138576437E+02 0.64756370642E+02 0.53221546009E+02 0.41155237839E+02
 0.29906170668E+02 0.20419886517E+02 0.13231028893E+02 0.84689995659E+01 0.58485629963E+01
 0.47091343703E+01 0.41899120804E+01 0.38499209403E+01 0.36941731863E+01 0.37264009677E+01
 0.39465564154E+01 0.43464991730E+01 0.49863843667E+01 0.65365668557E+01 0.98333125723E+01
 0.15427966944E+02 0.23467414875E+02 0.33677643928E+02 0.45372182639E+02 0.57447142108E+02
 0.68424313712E+02 0.63185248464E+02 0.67867563241E+02 0.68424277469E+02 0.64756370642E+02
 0.57564980216E+02 0.48106650716E+02 0.37808734662E+02 0.27938068287E+02 0.19429156796E+02
 0.12843898178E+02 0.83723649962E+01 0.58280636608E+01 0.46733773937E+01 0.41476010635E+01
 0.37915559503E+01 0.35996187018E+01 0.35747446442E+01 0.37169676195E+01 0.40270725864E+01
 0.44925455966E+01 0.53662938123E+01 0.74114744753E+01 0.11278862449E+02 0.17285652136E+02
 0.25352918288E+02 0.35003677683E+02 0.45372174979E+02 0.55241255348E+02 0.49052236852E+02
 0.53761184712E+02 0.55241216231E+02 0.53221546009E+02 0.48106650716E+02 0.40834547192E+02
 0.32579913647E+02 0.24454451830E+02 0.17318170046E+02 0.11711481537E+02 0.78458571521E+01
 0.56026903032E+01 0.45526621441E+01 0.40528707374E+01 0.37014450157E+01 0.34929982345E+01
 0.34282672521E+01 0.35052772239E+01 0.37278749215E+01 0.40972792529E+01 0.46215303392E+01
 0.57177858961E+01 0.80591518559E+01 0.12099002764E+02 0.17950618395E+02 0.25352913041E+02
 0.33677630612E+02 0.41968584088E+02 0.35800023933E+02 0.40066008665E+02 0.41968545287E+02
 0.41155237839E+02 0.37808734662E+02 0.32579913647E+02 0.26375801763E+02 0.20110704315E+02
 0.14523476561E+02 0.10093425106E+02 0.70202782842E+01 0.52243195533E+01 0.43636382822E+01
 0.39145580213E+01 0.35850197782E+01 0.33783570061E+01 0.32921668787E+01 0.33215301144E+01
 0.34692815065E+01 0.37439684722E+01 0.41458792191E+01 0.47203217367E+01 0.59295737700E+01
 0.82972495944E+01 0.12099000596E+02 0.17285644476E+02 0.23467398667E+02 0.29945050732E+02
 0.24509785825E+02 0.28023249533E+02 0.29945015857E+02 0.29906170668E+02 0.27938068287E+02
 0.24454451830E+02 0.20110704315E+02 0.15611383780E+02 0.11549394516E+02 0.83179990016E+01
 0.60827526455E+01 0.47807340303E+01 0.41367934788E+01 0.37459611313E+01 0.34508885906E+01
 0.32605101501E+01 0.31691976777E+01 0.31692425027E+01 0.32606154402E+01 0.34524642240E+01
 0.37559746582E+01 0.41698154648E+01 0.47580666225E+01 0.59295740261E+01 0.80591499129E+01
 0.11278854943E+02 0.15427950879E+02 0.20060173800E+02 0.15810643757E+02 0.18410674540E+02
 0.20060146107E+02 0.20419886517E+02 0.19429156796E+02 0.17318170046E+02 0.14523476561E+02
 0.11549394516E+02 0.88375529734E+01 0.66849489262E+01 0.52117189715E+01 0.43580371977E+01
 0.38988212327E+01 0.35624445099E+01 0.33095085230E+01 0.31449560902E+01 0.30607263877E+01
 0.30472581483E+01 0.31015820453E+01 0.32301340198E+01 0.34459494925E+01 0.37602216603E+01
 0.41698166300E+01 0.47203232009E+01 0.57177853801E+01 0.74114689198E+01 0.98332993514E+01
 0.12772845680E+02 0.98993635741E+01 0.11571030735E+02 0.12772827176E+02 0.13231028893E+02
 0.12843898178E+02 0.11711481537E+02 0.10093425106E+02 0.83179990016E+01 0.66849489262E+01
 0.53963961930E+01 0.45245091131E+01 0.40057419622E+01 0.36603022598E+01 0.33790813119E+01
 0.31714710847E+01 0.30373385081E+01 0.29675787041E+01 0.29521080192E+01 0.29859521661E+01
 0.30721095890E+01 0.32209477601E+01 0.34459502393E+01 0.37559765271E+01 0.41458815368E+01
 0.46215313004E+01 0.53662910057E+01 0.65365582471E+01 0.81132471272E+01 0.65235464076E+01
 0.74035485357E+01 0.81132379455E+01 0.84689995659E+01 0.83723649962E+01 0.78458571521E+01
 0.70202782842E+01 0.60827526455E+01 0.52117189715E+01 0.45245091131E+01 0.40487194942E+01
 0.37152406946E+01 0.34342643348E+01 0.32088137909E+01 0.30459344634E+01 0.29427314674E+01
 0.28905426738E+01 0.28800941635E+01 0.29056856990E+01 0.29675433214E+01 0.30721094811E+01
 0.32301345161E+01 0.34524657322E+01 0.37439706808E+01 0.40972810506E+01 0.44925454154E+01
 0.49863808361E+01 0.56717982030E+01 0.50033760729E+01 0.53610247932E+01 0.56717965139E+01
 0.58485629963E+01 0.58280636608E+01 0.56026903032E+01 0.52243195533E+01 0.47807340303E+01
 0.43580371977E+01 0.40057419622E+01 0.37152406946E+01 0.34549510487E+01 0.32338738296E+01
 0.30613173267E+01 0.29396191594E+01 0.28650930438E+01 0.28306346296E+01 0.28287783482E+01
 0.28542677778E+01 0.29056850864E+01 0.29859513263E+01 0.31015815757E+01 0.32606158277E+01
 0.34692828449E+01 0.37278768092E+01 0.40270742647E+01 0.43464998558E+01 0.46638938166E+01
 0.43870122346E+01 0.45534374201E+01 0.46638963835E+01 0.47091343703E+01 0.46733773937E+01
 0.45526621441E+01 0.43636382822E+01 0.41367934788E+01 0.38988212327E+01 0.36603022598E+01
 0.34342643348E+01 0.32338738296E+01 0.30684122624E+01 0.29425639004E+01 0.28565344279E+01
 0.28071083609E+01 0.27892667898E+01 0.27978309482E+01 0.28287777650E+01 0.28800929825E+01
 0.29521065233E+01 0.30472568229E+01 0.31692418634E+01 0.33215305239E+01 0.35052787723E+01
 0.37169701135E+01 0.39465594736E+01 0.41771673742E+01 0.40082986121E+01 0.41134147783E+01
 0.41771706090E+01 0.41899120804E+01 0.41476010635E+01 0.40528707374E+01 0.39145580213E+01
 0.37459611313E+01 0.35624445099E+01 0.33790813119E+01 0.32088137909E+01 0.30613173267E+01
 0.29425639004E+01 0.28550175553E+01 0.27983454837E+01 0.27704276141E+01 0.27683690923E+01
 0.27892664938E+01 0.28306338930E+01 0.28905415106E+01 0.29675773054E+01 0.30607250898E+01
 0.31691968820E+01 0.32921669497E+01 0.34282684211E+01 0.35747469472E+01 0.37264042334E+01
 0.38747962914E+01 0.38322842442E+01 0.38677022802E+01 0.38747974511E+01 0.38499209403E+01
 0.37915559503E+01 0.37014450157E+01 0.35850197782E+01 0.34508885906E+01 0.33095085230E+01
 0.31714710847E+01 0.30459344634E+01 0.29396191594E+01 0.28565344279E+01 0.27983454837E+01
 0.27651184346E+01 0.27561239821E+01 0.27704275588E+01 0.28071081950E+01 0.28650927544E+01
 0.29427310933E+01 0.30373381396E+01 0.31449558545E+01 0.32605101883E+01 0.33783574400E+01
 0.34929991327E+01 0.35996200548E+01 0.36941748981E+01 0.37730067702E+01 0.38677006741E+01
 0.38322823794E+01 0.37730048721E+01 0.36941731863E+01 0.35996187018E+01 0.34929982345E+01
 0.33783570061E+01 0.32605101501E+01 0.31449560902E+01 0.30373385081E+01 0.29427314674E+01
 0.28650930438E+01 0.28071083609E+01 0.27704276141E+01 0.27561239821E+01 0.27651184616E+01
 0.27983456282E+01 0.28565347698E+01 0.29396197493E+01 0.30459353085E+01 0.31714721380E+01
 0.33095096830E+01 0.34508897084E+01 0.35850206782E+01 0.37014455266E+01 0.37915559389E+01
 0.38499203425E+01 0.38747962914E+01 0.41134109364E+01 0.40082945285E+01 0.38747924014E+01
 0.37264009677E+01 0.35747446442E+01 0.34282672521E+01 0.32921668787E+01 0.31691976777E+01
 0.30607263877E+01 0.29675787041E+01 0.28905426738E+01 0.28306346296E+01 0.27892667898E+01
 0.27683690923E+01 0.27704275588E+01 0.27983456282E+01 0.28550180931E+01 0.29425649136E+01
 0.30613187717E+01 0.32088155145E+01 0.33790830895E+01 0.35624460826E+01 0.37459622435E+01
 0.39145584464E+01 0.40528702985E+01 0.41475996570E+01 0.41899097014E+01 0.41771673742E+01
 0.45534346359E+01 0.43870091815E+01 0.41771641671E+01 0.39465564154E+01 0.37169676195E+01
 0.35052772239E+01 0.33215301144E+01 0.31692425027E+01 0.30472581483E+01 0.29521080192E+01
 0.28800941635E+01 0.28287783482E+01 0.27978309482E+01 0.27892664938E+01 0.28071081950E+01
 0.28565347698E+01 0.29425649136E+01 0.30684138204E+01 0.32338755555E+01 0.34342657415E+01
 0.36603029231E+01 0.38988209349E+01 0.41367922566E+01 0.43636363713E+01 0.45526598546E+01
 0.46733749694E+01 0.47091319030E+01 0.46638938166E+01 0.53610272221E+01 0.50033780641E+01
 0.46638945616E+01 0.43464991730E+01 0.40270725864E+01 0.37278749215E+01 0.34692815065E+01
 0.32606154402E+01 0.31015820453E+01 0.29859521661E+01 0.29056856990E+01 0.28542677778E+01
 0.28287777650E+01 0.28306338930E+01 0.28650927544E+01 0.29396197493E+01 0.30613187717E+01
 0.32338755555E+01 0.34549520957E+01 0.37152400792E+01 0.40057391008E+01 0.43580321982E+01
 0.47807277308E+01 0.52243132757E+01 0.56026853999E+01 0.58280610453E+01 0.58485628350E+01
 0.56717982030E+01 0.74035596961E+01 0.65235567266E+01 0.56718055555E+01 0.49863843667E+01
 0.44925455966E+01 0.40972792529E+01 0.37439684722E+01 0.34524642240E+01 0.32301340198E+01
 0.30721095890E+01 0.29675433214E+01 0.29056850864E+01 0.28800929825E+01 0.28905415106E+01
 0.29427310933E+01 0.30459353085E+01 0.32088155145E+01 0.34342657415E+01 0.37152400792E+01
 0.40487153200E+01 0.45245007398E+01 0.52117071293E+01 0.60827394157E+01 0.70202665369E+01
 0.78458496508E+01 0.83723634781E+01 0.84690041556E+01 0.81132471272E+01 0.11571052252E+02
 0.98993835603E+01 0.81132621510E+01 0.65365668557E+01 0.53662938123E+01 0.46215303392E+01
 0.41458792191E+01 0.37559746582E+01 0.34459494925E+01 0.32209477601E+01 0.30721094811E+01
 0.29859513263E+01 0.29521065233E+01 0.29675773054E+01 0.30373381396E+01 0.31714721380E+01
 0.33790830895E+01 0.36603029231E+01 0.40057391008E+01 0.45245007398E+01 0.53963817820E+01
 0.66849300255E+01 0.83179790857E+01 0.10093408681E+02 0.11711472750E+02 0.12843899451E+02
 0.13231040102E+02 0.12772845680E+02 0.18410705580E+02 0.15810672308E+02 0.12772867437E+02
 0.98333125723E+01 0.74114744753E+01 0.57177858961E+01 0.47203217367E+01 0.41698154648E+01
 0.37602216603E+01 0.34459502393E+01 0.32301345161E+01 0.31015815757E+01 0.30472568229E+01
 0.30607250898E+01 0.31449558545E+01 0.33095096830E+01 0.35624460826E+01 0.38988209349E+01
 0.43580321982E+01 0.52117071293E+01 0.66849300255E+01 0.88375293616E+01 0.11549370833E+02
 0.14523458515E+02 0.17318162655E+02 0.19429162737E+02 0.20419905195E+02 0.20060173800E+02
 0.28023287085E+02 0.24509819738E+02 0.20060199602E+02 0.15427966944E+02 0.11278862449E+02
 0.80591518559E+01 0.59295737700E+01 0.47580666225E+01 0.41698166300E+01 0.37559765271E+01
 0.34524657322E+01 0.32606158277E+01 0.31692418634E+01 0.31691968820E+01 0.32605101883E+01
 0.34508897084E+01 0.37459622435E+01 0.41367922566E+01 0.47807277308E+01 0.60827394157E+01
 0.83179790857E+01 0.11549370833E+02 0.15611361492E+02 0.20110689439E+02 0.24454449384E+02
 0.27938080597E+02 0.29906196503E+02 0.29945050732E+02 0.40066048472E+02 0.35800058892E+02
 0.29945076908E+02 0.23467414875E+02 0.17285652136E+02 0.12099002764E+02 0.82972495944E+01
 0.59295740261E+01 0.47203232009E+01 0.41458815368E+01 0.37439706808E+01 0.34692828449E+01
 0.33215305239E+01 0.32921669497E+01 0.33783574400E+01 0.35850206782E+01 0.39145584464E+01
 0.43636363713E+01 0.52243132757E+01 0.70202665369E+01 0.10093408681E+02 0.14523458515E+02
 0.20110689439E+02 0.26375795290E+02 0.32579919592E+02 0.37808754390E+02 0.41155269459E+02
 0.41968584088E+02 0.53761222482E+02 0.49052268633E+02 0.41968606954E+02 0.33677643928E+02
 0.25352918288E+02 0.17950618395E+02 0.12099000596E+02 0.80591499129E+01 0.57177853801E+01
 0.46215313004E+01 0.40972810506E+01 0.37278768092E+01 0.35052787723E+01 0.34282684211E+01
 0.34929991327E+01 0.37014455266E+01 0.40528702985E+01 0.45526598546E+01 0.56026853999E+01
 0.78458496508E+01 0.11711472750E+02 0.17318162655E+02 0.24454449384E+02 0.32579919592E+02
 0.40834563702E+02 0.48106677813E+02 0.53221581290E+02 0.55241255348E+02 0.67867595608E+02
 0.63185273874E+02 0.55241271986E+02 0.45372182639E+02 0.35003677683E+02 0.25352913041E+02
 0.17285644476E+02 0.11278854943E+02 0.74114689198E+01 0.53662910057E+01 0.44925454154E+01
 0.40270742647E+01 0.37169701135E+01 0.35747469472E+01 0.35996200548E+01 0.37915559389E+01
 0.41475996570E+01 0.46733749694E+01 0.58280610453E+01 0.83723634781E+01 0.12843899451E+02
 0.19429162737E+02 0.27938080597E+02 0.37808754390E+02 0.48106677813E+02 0.57565013305E+02
 0.64756407068E+02 0.68424313712E+02 0.80701113411E+02 0.76652974306E+02 0.68424322362E+02
 0.57447142108E+02 0.45372174979E+02 0.33677630612E+02 0.23467398667E+02 0.15427950879E+02
 0.98332993514E+01 0.65365582471E+01 0.49863808361E+01 0.43464998558E+01 0.39465594736E+01
 0.37264042334E+01 0.36941748981E+01 0.38499203425E+01 0.41899097014E+01 0.47091319030E+01
 0.58485628350E+01 0.84690041556E+01 0.13231040102E+02 0.20419905195E+02 0.29906196503E+02
 0.41155269459E+02 0.53221581290E+02 0.64756407068E+02 0.74138611391E+02 0.79804244615E+02
 0.90351186220E+02 0.87581002447E+02 0.79804244615E+02 0.68424313712E+02 0.55241255348E+02
 0.41968584088E+02 0.29945050732E+02 0.20060173800E+02 0.12772845680E+02 0.81132471272E+01
 0.56717982030E+01 0.46638938166E+01 0.41771673742E+01 0.38747962914E+01 0.37730067702E+01
 0.38747962914E+01 0.41771673742E+01 0.46638938166E+01 0.56717982030E+01 0.81132471272E+01
 0.12772845680E+02 0.20060173800E+02 0.29945050732E+02 0.41968584088E+02 0.55241255348E+02
 0.68424313712E+02 0.79804244615E+02 0.87581002447E+02 0.86726572937E+02 0.87580993861E+02
 0.83101039239E+02 0.74138595823E+02 0.62252718202E+02 0.49216130816E+02 0.36595127597E+02
 0.25546162777E+02 0.16788740046E+02 0.10624487488E+02 0.69285441216E+01 0.51544221418E+01
 0.44429139241E+01 0.40251158979E+01 0.37938951544E+01 0.37613617132E+01 0.39283163200E+01
 0.42889613411E+01 0.48533960545E+01 0.61742757204E+01 0.91637754630E+01 0.14496733107E+02
 0.22443983987E+02 0.32838686903E+02 0.45089001355E+02 0.58168931206E+02 0.70622055078E+02
 0.80701113411E+02 0.87580993861E+02 0.90351169467E+02 0.87580978120E+02 0.79804213593E+02
 0.68424277469E+02 0.55241216231E+02 0.41968545287E+02 0.29945015857E+02 0.20060146107E+02
 0.12772827176E+02 0.81132379455E+01 0.56717965139E+01 0.46638963835E+01 0.41771706090E+01
 0.38747974511E+01 0.37730048721E+01 0.38747924014E+01 0.41771641671E+01 0.46638945616E+01
 0.56718055555E+01 0.81132621510E+01 0.12772867437E+02 0.20060199602E+02 0.29945076908E+02
 0.41968606954E+02 0.55241271986E+02 0.68424322362E+02 0.79804244615E+02 0.83101039239E+02
 0.87580978120E+02 0.86726541969E+02 0.80701068450E+02 0.70621998442E+02 0.58168866708E+02