   1   1   1   0
  0.1157456E+02  0.2468172E-09  0.2468172E-09  0.2468172E-09  0.5000000E-15
  1.000000000000000E-004
  CAR 
 Fe BCC                                  
     46.74467979     -4.81249430  301      5.58782231      1.00000000
     -4.812  0.0000E+00  0.0000E+00  0.0000E+00  0.0000E+00
     -4.641  0.0000E+00  0.0000E+00  0.0000E+00  0.0000E+00
     -4.469  0.0000E+00  0.0000E+00  0.0000E+00  0.0000E+00
     -4.297  0.0000E+00  0.0000E+00  0.0000E+00  0.0000E+00
     -4.125  0.0000E+00  0.0000E+00  0.0000E+00  0.0000E+00
     -3.953  0.0000E+00  0.0000E+00  0.0000E+00  0.0000E+00
     -3.781  0.0000E+00  0.0000E+00  0.0000E+00  0.0000E+00
     -3.609  0.0000E+00  0.0000E+00  0.0000E+00  0.0000E+00
     -3.438  0.0000E+00  0.0000E+00  0.0000E+00  0.0000E+00
     -3.266  0.0000E+00  0.0000E+00  0.0000E+00  0.0000E+00
     -3.094  0.0000E+00  0.0000E+00  0.0000E+00  0.0000E+00
     -2.922  0.0000E+00  0.0000E+00  0.0000E+00  0.0000E+00
     -2.750  0.0000E+00  0.0000E+00  0.0000E+00  0.0000E+00
     -2.578  0.0000E+00  0.0000E+00  0.0000E+00  0.0000E+00
     -2.406  0.1065E-01  0.0000E+00  0.9044E-03  0.0000E+00
     -2.235  0.1765E-01  0.1236E-01  0.3365E-02  0.1378E-02
     -2.063  0.2286E-01  0.1869E-01  0.6852E-02  0.4076E-02
     -1.891  0.3110E-01  0.2452E-01  0.1154E-01  0.7721E-02
     -1.719  0.3593E-01  0.3167E-01  0.1735E-01  0.1260E-01
     -1.547  0.3724E-01  0.3546E-01  0.2345E-01  0.1841E-01
     -1.375  0.4216E-01  0.3652E-01  0.3027E-01  0.2434E-01
     -1.203  0.4751E-01  0.4089E-01  0.3797E-01  0.3098E-01
     -1.032  0.5327E-01  0.4558E-01  0.4662E-01  0.3841E-01
     -0.860  0.5876E-01  0.5058E-01  0.5620E-01  0.4667E-01
     -0.688  0.6524E-01  0.5452E-01  0.6687E-01  0.5567E-01
     -0.516  0.7047E-01  0.5894E-01  0.7854E-01  0.6543E-01
     -0.344  0.7714E-01  0.6207E-01  0.9119E-01  0.7585E-01
     -0.172  0.8643E-01  0.6562E-01  0.1052E+00  0.8681E-01
     -0.000  0.9720E-01  0.7064E-01  0.1210E+00  0.9850E-01
      0.171  0.1094E+00  0.7641E-01  0.1387E+00  0.1111E+00
      0.343  0.1261E+00  0.8275E-01  0.1588E+00  0.1248E+00
      0.515  0.1606E+00  0.8966E-01  0.1832E+00  0.1396E+00
      0.687  0.2090E+00  0.9575E-01  0.2145E+00  0.1555E+00
      0.859  0.3126E+00  0.1045E+00  0.2586E+00  0.1727E+00
      1.031  0.5220E+00  0.1152E+00  0.3369E+00  0.1915E+00
      1.203  0.6984E+00  0.1259E+00  0.4397E+00  0.2122E+00
      1.374  0.8529E+00  0.1382E+00  0.5722E+00  0.2349E+00
      1.546  0.1257E+01  0.1550E+00  0.7388E+00  0.2600E+00
      1.718  0.6690E+00  0.1761E+00  0.9117E+00  0.2884E+00
      1.890  0.5946E+00  0.2035E+00  0.1022E+01  0.3209E+00
      2.062  0.3359E+00  0.2799E+00  0.1101E+01  0.3605E+00
      2.234  0.3062E+00  0.3763E+00  0.1151E+01  0.4205E+00
      2.406  0.2914E+01  0.3827E+00  0.1406E+01  0.4851E+00
      2.577  0.1011E+01  0.3744E+00  0.1679E+01  0.5503E+00
      2.749  0.8436E+00  0.3984E+00  0.1834E+01  0.6160E+00
      2.921  0.1029E+01  0.5546E+00  0.1990E+01  0.6971E+00
      3.093  0.1784E+01  0.7506E+00  0.2235E+01  0.8104E+00
      3.265  0.1461E+01  0.5566E+00  0.2531E+01  0.9302E+00
      3.437  0.6072E+00  0.3636E+00  0.2696E+01  0.1006E+01
      3.609  0.4570E+00  0.2583E+00  0.2786E+01  0.1061E+01
      3.780  0.4117E+00  0.1927E+00  0.2859E+01  0.1098E+01
      3.952  0.5272E+00  0.1050E+01  0.2946E+01  0.1195E+01
      4.124  0.6754E+00  0.1482E+01  0.3047E+01  0.1404E+01
      4.296  0.1391E+01  0.1265E+01  0.3200E+01  0.1654E+01
      4.468  0.1990E+01  0.1154E+01  0.3527E+01  0.1862E+01
      4.640  0.2353E+01  0.1069E+01  0.3910E+01  0.2054E+01
      4.812  0.2087E+01  0.1344E+01  0.4316E+01  0.2250E+01
      4.983  0.1033E+01  0.1392E+01  0.4566E+01  0.2497E+01
      5.155  0.9474E+00  0.9109E+00  0.4733E+01  0.2698E+01
      5.327  0.8948E+00  0.3355E+00  0.4890E+01  0.2819E+01
      5.499  0.7955E+00  0.2671E+00  0.5031E+01  0.2869E+01
      5.671  0.5894E+00  0.2284E+00  0.5189E+01  0.2911E+01
      5.843  0.1834E+00  0.1864E+00  0.5246E+01  0.2949E+01
      6.015  0.1496E+00  0.2257E+00  0.5273E+01  0.2982E+01
      6.186  0.1495E+00  0.3243E+00  0.5298E+01  0.3032E+01
      6.358  0.1658E+00  0.4424E+00  0.5326E+01  0.3097E+01
      6.530  0.1658E+00  0.7914E+00  0.5354E+01  0.3200E+01
      6.702  0.1623E+00  0.9792E+00  0.5383E+01  0.3358E+01
      6.874  0.1521E+00  0.1222E+01  0.5409E+01  0.3545E+01
      7.046  0.1497E+00  0.1697E+01  0.5435E+01  0.3790E+01
      7.218  0.1498E+00  0.1111E+01  0.5461E+01  0.4029E+01
      7.389  0.1492E+00  0.1631E+01  0.5487E+01  0.4243E+01
      7.561  0.1487E+00  0.4497E+01  0.5512E+01  0.4634E+01
      7.733  0.1471E+00  0.1202E+01  0.5538E+01  0.4965E+01
      7.905  0.1443E+00  0.1065E+01  0.5563E+01  0.5159E+01
      8.077  0.1462E+00  0.2938E+00  0.5588E+01  0.5256E+01
      8.249  0.1380E+00  0.2422E+00  0.5612E+01  0.5299E+01
      8.421  0.1394E+00  0.2414E+00  0.5636E+01  0.5341E+01
      8.592  0.1347E+00  0.2329E+00  0.5660E+01  0.5382E+01
      8.764  0.1293E+00  0.2125E+00  0.5683E+01  0.5420E+01
      8.936  0.1255E+00  0.2072E+00  0.5704E+01  0.5456E+01
      9.108  0.1212E+00  0.2022E+00  0.5726E+01  0.5491E+01
      9.280  0.1165E+00  0.1950E+00  0.5746E+01  0.5525E+01
      9.452  0.1142E+00  0.1901E+00  0.5766E+01  0.5558E+01
      9.624  0.1098E+00  0.1723E+00  0.5785E+01  0.5589E+01
      9.795  0.1078E+00  0.1698E+00  0.5804E+01  0.5619E+01
      9.967  0.1052E+00  0.1668E+00  0.5822E+01  0.5648E+01
     10.139  0.9810E-01  0.1580E+00  0.5840E+01  0.5675E+01
     10.311  0.9426E-01  0.1508E+00  0.5856E+01  0.5702E+01
     10.483  0.9028E-01  0.1444E+00  0.5872E+01  0.5727E+01
     10.655  0.8658E-01  0.1371E+00  0.5887E+01  0.5751E+01
     10.827  0.8340E-01  0.1322E+00  0.5902E+01  0.5775E+01
     10.998  0.8522E-01  0.1330E+00  0.5916E+01  0.5797E+01
     11.170  0.7567E-01  0.1189E+00  0.5930E+01  0.5819E+01
     11.342  0.4771E-01  0.1136E+00  0.5942E+01  0.5839E+01
     11.514  0.4186E-01  0.1082E+00  0.5949E+01  0.5858E+01
     11.686  0.3652E-01  0.1029E+00  0.5956E+01  0.5876E+01
     11.858  0.3170E-01  0.9784E-01  0.5962E+01  0.5893E+01
     12.030  0.3537E-01  0.9310E-01  0.5968E+01  0.5909E+01
     12.201  0.2847E-01  0.8942E-01  0.5974E+01  0.5925E+01
     12.373  0.1815E-01  0.7543E-01  0.5977E+01  0.5940E+01
     12.545  0.1792E-01  0.4963E-01  0.5980E+01  0.5951E+01
     12.717  0.1989E-01  0.4865E-01  0.5983E+01  0.5959E+01
     12.889  0.2958E-01  0.4219E-01  0.5987E+01  0.5967E+01
     13.061  0.6924E-01  0.3367E-01  0.5996E+01  0.5973E+01
     13.233  0.1273E+00  0.2175E-01  0.6012E+01  0.5978E+01
     13.404  0.1879E+00  0.1907E-01  0.6039E+01  0.5981E+01
     13.576  0.2202E+00  0.1783E-01  0.6074E+01  0.5984E+01
     13.748  0.2284E+00  0.1868E-01  0.6114E+01  0.5987E+01
     13.920  0.2355E+00  0.2162E-01  0.6154E+01  0.5991E+01
     14.092  0.2373E+00  0.2664E-01  0.6195E+01  0.5995E+01
     14.264  0.2352E+00  0.5461E-01  0.6236E+01  0.6001E+01
     14.436  0.2075E+00  0.1391E+00  0.6274E+01  0.6018E+01
     14.607  0.1820E+00  0.2255E+00  0.6310E+01  0.6049E+01
     14.779  0.1761E+00  0.2969E+00  0.6340E+01  0.6095E+01
     14.951  0.1705E+00  0.2909E+00  0.6370E+01  0.6147E+01
     15.123  0.1663E+00  0.2789E+00  0.6399E+01  0.6195E+01
     15.295  0.1645E+00  0.2682E+00  0.6428E+01  0.6242E+01
     15.467  0.1783E+00  0.2188E+00  0.6456E+01  0.6286E+01
     15.639  0.1781E+00  0.2091E+00  0.6487E+01  0.6322E+01
     15.810  0.1933E+00  0.1997E+00  0.6520E+01  0.6358E+01
     15.982  0.1847E+00  0.2017E+00  0.6553E+01  0.6392E+01
     16.154  0.1889E+00  0.1754E+00  0.6585E+01  0.6429E+01
     16.326  0.1931E+00  0.1756E+00  0.6618E+01  0.6459E+01
     16.498  0.1972E+00  0.1842E+00  0.6652E+01  0.6490E+01
     16.670  0.2005E+00  0.2061E+00  0.6686E+01  0.6526E+01
     16.842  0.2017E+00  0.2045E+00  0.6720E+01  0.6561E+01
     17.013  0.2008E+00  0.2089E+00  0.6755E+01  0.6597E+01
     17.185  0.1951E+00  0.2146E+00  0.6789E+01  0.6633E+01
     17.357  0.1838E+00  0.2172E+00  0.6822E+01  0.6670E+01
     17.529  0.1829E+00  0.2169E+00  0.6854E+01  0.6707E+01
     17.701  0.1824E+00  0.2124E+00  0.6885E+01  0.6744E+01
     17.873  0.1818E+00  0.1996E+00  0.6917E+01  0.6780E+01
     18.045  0.1814E+00  0.1942E+00  0.6948E+01  0.6813E+01
     18.216  0.1809E+00  0.1917E+00  0.6979E+01  0.6847E+01
     18.388  0.1844E+00  0.1910E+00  0.7010E+01  0.6879E+01
     18.560  0.1855E+00  0.1906E+00  0.7043E+01  0.6912E+01
     18.732  0.1860E+00  0.1903E+00  0.7074E+01  0.6945E+01
     18.904  0.1859E+00  0.1900E+00  0.7106E+01  0.6978E+01
     19.076  0.1844E+00  0.2033E+00  0.7138E+01  0.7011E+01
     19.248  0.1830E+00  0.1943E+00  0.7170E+01  0.7045E+01
     19.419  0.1819E+00  0.1952E+00  0.7201E+01  0.7078E+01
     19.591  0.1825E+00  0.1946E+00  0.7233E+01  0.7112E+01
     19.763  0.1780E+00  0.1925E+00  0.7263E+01  0.7145E+01
     19.935  0.1769E+00  0.1909E+00  0.7294E+01  0.7178E+01
     20.107  0.1755E+00  0.1909E+00  0.7324E+01  0.7211E+01
     20.279  0.1734E+00  0.1881E+00  0.7354E+01  0.7243E+01
     20.451  0.1706E+00  0.1858E+00  0.7384E+01  0.7275E+01
     20.622  0.1687E+00  0.1843E+00  0.7414E+01  0.7307E+01
     20.794  0.1674E+00  0.1825E+00  0.7443E+01  0.7339E+01
     20.966  0.1679E+00  0.1800E+00  0.7472E+01  0.7370E+01
     21.138  0.1683E+00  0.1786E+00  0.7501E+01  0.7401E+01
     21.310  0.1727E+00  0.1767E+00  0.7530E+01  0.7432E+01
     21.482  0.1750E+00  0.1774E+00  0.7560E+01  0.7463E+01
     21.654  0.1781E+00  0.1780E+00  0.7591E+01  0.7493E+01
     21.825  0.1831E+00  0.1780E+00  0.7622E+01  0.7524E+01
     21.997  0.2007E+00  0.1776E+00  0.7654E+01  0.7554E+01
     22.169  0.1983E+00  0.1818E+00  0.7688E+01  0.7585E+01
     22.341  0.2015E+00  0.1850E+00  0.7723E+01  0.7617E+01
     22.513  0.2052E+00  0.1941E+00  0.7758E+01  0.7649E+01
     22.685  0.2104E+00  0.2037E+00  0.7793E+01  0.7683E+01
     22.857  0.2174E+00  0.2069E+00  0.7830E+01  0.7719E+01
     23.028  0.2540E+00  0.2183E+00  0.7869E+01  0.7756E+01
     23.200  0.2383E+00  0.2274E+00  0.7909E+01  0.7794E+01
     23.372  0.2437E+00  0.2359E+00  0.7951E+01  0.7834E+01
     23.544  0.2477E+00  0.2443E+00  0.7993E+01  0.7875E+01
     23.716  0.2512E+00  0.2557E+00  0.8036E+01  0.7919E+01
     23.888  0.2565E+00  0.2599E+00  0.8079E+01  0.7963E+01
     24.060  0.2547E+00  0.2548E+00  0.8123E+01  0.8007E+01
     24.231  0.2548E+00  0.2567E+00  0.8166E+01  0.8051E+01
     24.403  0.2648E+00  0.2589E+00  0.8211E+01  0.8096E+01
     24.575  0.2756E+00  0.2628E+00  0.8257E+01  0.8141E+01
     24.747  0.2872E+00  0.2617E+00  0.8306E+01  0.8186E+01
     24.919  0.3194E+00  0.2700E+00  0.8358E+01  0.8231E+01
     25.091  0.3048E+00  0.2830E+00  0.8411E+01  0.8279E+01
     25.263  0.3026E+00  0.2991E+00  0.8463E+01  0.8329E+01
     25.434  0.2979E+00  0.3235E+00  0.8515E+01  0.8382E+01
     25.606  0.2981E+00  0.3274E+00  0.8566E+01  0.8439E+01
     25.778  0.2962E+00  0.3094E+00  0.8617E+01  0.8494E+01
     25.950  0.2755E+00  0.3033E+00  0.8667E+01  0.8547E+01
     26.122  0.2624E+00  0.3011E+00  0.8713E+01  0.8599E+01
     26.294  0.2457E+00  0.2895E+00  0.8757E+01  0.8649E+01
     26.466  0.2294E+00  0.2644E+00  0.8797E+01  0.8697E+01
     26.637  0.2156E+00  0.2506E+00  0.8836E+01  0.8741E+01
     26.809  0.2019E+00  0.2389E+00  0.8872E+01  0.8783E+01
     26.981  0.1853E+00  0.2277E+00  0.8905E+01  0.8823E+01
     27.153  0.1681E+00  0.2121E+00  0.8936E+01  0.8861E+01
     27.325  0.1511E+00  0.1945E+00  0.8963E+01  0.8896E+01
     27.497  0.1367E+00  0.1756E+00  0.8988E+01  0.8927E+01
     27.669  0.1261E+00  0.1553E+00  0.9010E+01  0.8956E+01
     27.840  0.1230E+00  0.1379E+00  0.9031E+01  0.8982E+01
     28.012  0.1251E+00  0.1313E+00  0.9053E+01  0.9005E+01
     28.184  0.1278E+00  0.1296E+00  0.9074E+01  0.9027E+01
     28.356  0.1302E+00  0.1296E+00  0.9096E+01  0.9049E+01
     28.528  0.1325E+00  0.1310E+00  0.9119E+01  0.9072E+01
     28.700  0.1322E+00  0.1286E+00  0.9142E+01  0.9094E+01
     28.872  0.1441E+00  0.1301E+00  0.9166E+01  0.9116E+01
     29.043  0.1514E+00  0.1330E+00  0.9191E+01  0.9139E+01
     29.215  0.1577E+00  0.1641E+00  0.9218E+01  0.9163E+01
     29.387  0.1685E+00  0.1452E+00  0.9247E+01  0.9187E+01
     29.559  0.1572E+00  0.2013E+00  0.9273E+01  0.9221E+01
     29.731  0.1674E+00  0.1597E+00  0.9301E+01  0.9248E+01
     29.903  0.2283E+00  0.1650E+00  0.9336E+01  0.9276E+01
     30.075  0.3262E+00  0.1692E+00  0.9382E+01  0.9306E+01
     30.246  0.3928E+00  0.1997E+00  0.9448E+01  0.9336E+01
     30.418  0.2920E+00  0.2891E+00  0.9506E+01  0.9377E+01
     30.590  0.2622E+00  0.4477E+00  0.9554E+01  0.9439E+01
     30.762  0.2395E+00  0.3149E+00  0.9597E+01  0.9507E+01
     30.934  0.2281E+00  0.2703E+00  0.9637E+01  0.9556E+01
     31.106  0.2129E+00  0.2662E+00  0.9675E+01  0.9603E+01
     31.278  0.2005E+00  0.2413E+00  0.9711E+01  0.9647E+01
     31.449  0.1920E+00  0.2156E+00  0.9745E+01  0.9686E+01
     31.621  0.1857E+00  0.1934E+00  0.9777E+01  0.9721E+01
     31.793  0.1781E+00  0.1948E+00  0.9808E+01  0.9754E+01
     31.965  0.1691E+00  0.1826E+00  0.9838E+01  0.9787E+01
     32.137  0.1608E+00  0.1716E+00  0.9867E+01  0.9817E+01
     32.309  0.1561E+00  0.1606E+00  0.9894E+01  0.9846E+01
     32.481  0.1539E+00  0.1549E+00  0.9920E+01  0.9873E+01
     32.652  0.1612E+00  0.1470E+00  0.9947E+01  0.9899E+01
     32.824  0.1720E+00  0.1370E+00  0.9975E+01  0.9923E+01
     32.996  0.2394E+00  0.1414E+00  0.1001E+02  0.9947E+01
     33.168  0.2823E+00  0.1523E+00  0.1006E+02  0.9972E+01
     33.340  0.3141E+00  0.1924E+00  0.1011E+02  0.1000E+02
     33.512  0.3868E+00  0.2474E+00  0.1017E+02  0.1004E+02
     33.684  0.3570E+00  0.2944E+00  0.1023E+02  0.1008E+02
     33.855  0.3414E+00  0.4115E+00  0.1029E+02  0.1015E+02
     34.027  0.3233E+00  0.3860E+00  0.1035E+02  0.1021E+02
     34.199  0.3079E+00  0.3609E+00  0.1040E+02  0.1028E+02
     34.371  0.2811E+00  0.3390E+00  0.1046E+02  0.1034E+02
     34.543  0.2533E+00  0.3148E+00  0.1050E+02  0.1040E+02
     34.715  0.2403E+00  0.2865E+00  0.1054E+02  0.1045E+02
     34.887  0.2321E+00  0.2597E+00  0.1058E+02  0.1050E+02
     35.058  0.2230E+00  0.2472E+00  0.1062E+02  0.1054E+02
     35.230  0.2200E+00  0.2397E+00  0.1066E+02  0.1058E+02
     35.402  0.2218E+00  0.2310E+00  0.1070E+02  0.1062E+02
     35.574  0.2273E+00  0.2244E+00  0.1074E+02  0.1066E+02
     35.746  0.2355E+00  0.2245E+00  0.1078E+02  0.1070E+02
     35.918  0.2256E+00  0.2294E+00  0.1082E+02  0.1074E+02
     36.090  0.2255E+00  0.2364E+00  0.1086E+02  0.1078E+02
     36.261  0.2587E+00  0.2415E+00  0.1090E+02  0.1082E+02
     36.433  0.2523E+00  0.2219E+00  0.1094E+02  0.1086E+02
     36.605  0.2619E+00  0.2996E+00  0.1098E+02  0.1090E+02
     36.777  0.2803E+00  0.2477E+00  0.1103E+02  0.1094E+02
     36.949  0.2731E+00  0.2578E+00  0.1108E+02  0.1099E+02
     37.121  0.2796E+00  0.2603E+00  0.1112E+02  0.1103E+02
     37.293  0.2832E+00  0.2491E+00  0.1117E+02  0.1107E+02
     37.464  0.2845E+00  0.2496E+00  0.1122E+02  0.1112E+02
     37.636  0.2864E+00  0.2740E+00  0.1127E+02  0.1116E+02
     37.808  0.2870E+00  0.2809E+00  0.1132E+02  0.1121E+02
     37.980  0.2908E+00  0.2850E+00  0.1137E+02  0.1126E+02
     38.152  0.3232E+00  0.2911E+00  0.1142E+02  0.1131E+02
     38.324  0.2488E+00  0.2962E+00  0.1147E+02  0.1136E+02
     38.496  0.2363E+00  0.2938E+00  0.1151E+02  0.1141E+02
     38.667  0.2225E+00  0.3179E+00  0.1155E+02  0.1146E+02
     38.839  0.2128E+00  0.2483E+00  0.1159E+02  0.1151E+02
     39.011  0.2023E+00  0.2392E+00  0.1163E+02  0.1155E+02
     39.183  0.1821E+00  0.2246E+00  0.1166E+02  0.1159E+02
     39.355  0.1666E+00  0.2016E+00  0.1169E+02  0.1163E+02
     39.527  0.1516E+00  0.1820E+00  0.1172E+02  0.1166E+02
     39.699  0.1364E+00  0.1643E+00  0.1174E+02  0.1169E+02
     39.870  0.1240E+00  0.1472E+00  0.1176E+02  0.1172E+02
     40.042  0.1113E+00  0.1312E+00  0.1178E+02  0.1174E+02
     40.214  0.1032E+00  0.1194E+00  0.1180E+02  0.1177E+02
     40.386  0.9738E-01  0.1121E+00  0.1182E+02  0.1179E+02
     40.558  0.9204E-01  0.1126E+00  0.1184E+02  0.1181E+02
     40.730  0.8713E-01  0.1088E+00  0.1185E+02  0.1182E+02
     40.902  0.6593E-01  0.9295E-01  0.1187E+02  0.1184E+02
     41.073  0.6190E-01  0.7547E-01  0.1188E+02  0.1186E+02
     41.245  0.5816E-01  0.6759E-01  0.1189E+02  0.1187E+02
     41.417  0.5455E-01  0.6318E-01  0.1190E+02  0.1188E+02
     41.589  0.5503E-01  0.5925E-01  0.1191E+02  0.1189E+02
     41.761  0.5421E-01  0.5768E-01  0.1192E+02  0.1190E+02
     41.933  0.5175E-01  0.5460E-01  0.1193E+02  0.1191E+02
     42.105  0.4835E-01  0.5519E-01  0.1193E+02  0.1192E+02
     42.276  0.4540E-01  0.5228E-01  0.1194E+02  0.1193E+02
     42.448  0.4393E-01  0.4822E-01  0.1195E+02  0.1194E+02
     42.620  0.3866E-01  0.4488E-01  0.1196E+02  0.1195E+02
     42.792  0.3407E-01  0.4270E-01  0.1196E+02  0.1195E+02
     42.964  0.3071E-01  0.4082E-01  0.1197E+02  0.1196E+02
     43.136  0.2766E-01  0.3458E-01  0.1197E+02  0.1197E+02
     43.308  0.2477E-01  0.3088E-01  0.1198E+02  0.1197E+02
     43.479  0.2205E-01  0.2741E-01  0.1198E+02  0.1198E+02
     43.651  0.1950E-01  0.2419E-01  0.1199E+02  0.1198E+02
     43.823  0.1712E-01  0.2120E-01  0.1199E+02  0.1199E+02
     43.995  0.1490E-01  0.1846E-01  0.1199E+02  0.1199E+02
     44.167  0.1285E-01  0.2040E-01  0.1199E+02  0.1199E+02
     44.339  0.0000E+00  0.2080E-02  0.1200E+02  0.1200E+02
     44.511  0.0000E+00  0.0000E+00  0.1200E+02  0.1200E+02
     44.682  0.0000E+00  0.0000E+00  0.1200E+02  0.1200E+02
     44.854  0.0000E+00  0.0000E+00  0.1200E+02  0.1200E+02
     45.026  0.0000E+00  0.0000E+00  0.1200E+02  0.1200E+02
     45.198  0.0000E+00  0.0000E+00  0.1200E+02  0.1200E+02
     45.370  0.0000E+00  0.0000E+00  0.1200E+02  0.1200E+02
     45.542  0.0000E+00  0.0000E+00  0.1200E+02  0.1200E+02
     45.714  0.0000E+00  0.0000E+00  0.1200E+02  0.1200E+02
     45.885  0.0000E+00  0.0000E+00  0.1200E+02  0.1200E+02
     46.057  0.0000E+00  0.0000E+00  0.1200E+02  0.1200E+02
     46.229  0.0000E+00  0.0000E+00  0.1200E+02  0.1200E+02
     46.401  0.0000E+00  0.0000E+00  0.1200E+02  0.1200E+02
     46.573  0.0000E+00  0.0000E+00  0.1200E+02  0.1200E+02
     46.745  0.0000E+00  0.0000E+00  0.1200E+02  0.1200E+02
     46.74467979     -4.81249430  301      5.58782231      1.00000000
     -4.812  0.0000E+00  0.0000E+00  0.0000E+00  0.0000E+00  0.0000E+00  0.0000E+00  0.0000E+00  0.0000E+00  0.0000E+00  0.0000E+00  0.0000E+00  0.0000E+00  0.0000E+00  0.0000E+00  0.0000E+00  0.0000E+00  0.0000E+00  0.0000E+00
     -4.641  0.0000E+00  0.0000E+00  0.0000E+00  0.0000E+00  0.0000E+00  0.0000E+00  0.0000E+00  0.0000E+00  0.0000E+00  0.0000E+00  0.0000E+00  0.0000E+00  0.0000E+00  0.0000E+00  0.0000E+00  0.0000E+00  0.0000E+00  0.0000E+00
     -4.469  0.0000E+00  0.0000E+00  0.0000E+00  0.0000E+00  0.0000E+00  0.0000E+00  0.0000E+00  0.0000E+00  0.0000E+00  0.0000E+00  0.0000E+00  0.0000E+00  0.0000E+00  0.0000E+00  0.0000E+00  0.0000E+00  0.0000E+00  0.0000E+00
     -4.297  0.0000E+00  0.0000E+00  0.0000E+00  0.0000E+00  0.0000E+00  0.0000E+00  0.0000E+00  0.0000E+00  0.0000E+00  0.0000E+00  0.0000E+00  0.0000E+00  0.0000E+00  0.0000E+00  0.0000E+00  0.0000E+00  0.0000E+00  0.0000E+00
     -4.125  0.0000E+00  0.0000E+00  0.0000E+00  0.0000E+00  0.0000E+00  0.0000E+00  0.0000E+00  0.0000E+00  0.0000E+00  0.0000E+00  0.0000E+00  0.0000E+00  0.0000E+00  0.0000E+00  0.0000E+00  0.0000E+00  0.0000E+00  0.0000E+00
     -3.953  0.0000E+00  0.0000E+00  0.0000E+00  0.0000E+00  0.0000E+00  0.0000E+00  0.0000E+00  0.0000E+00  0.0000E+00  0.0000E+00  0.0000E+00  0.0000E+00  0.0000E+00  0.0000E+00  0.0000E+00  0.0000E+00  0.0000E+00  0.0000E+00
     -3.781  0.0000E+00  0.0000E+00  0.0000E+00  0.0000E+00  0.0000E+00  0.0000E+00  0.0000E+00  0.0000E+00  0.0000E+00  0.0000E+00  0.0000E+00  0.0000E+00  0.0000E+00  0.0000E+00  0.0000E+00  0.0000E+00  0.0000E+00  0.0000E+00
     -3.609  0.0000E+00  0.0000E+00  0.0000E+00  0.0000E+00  0.0000E+00  0.0000E+00  0.0000E+00  0.0000E+00  0.0000E+00  0.0000E+00  0.0000E+00  0.0000E+00  0.0000E+00  0.0000E+00  0.0000E+00  0.0000E+00  0.0000E+00  0.0000E+00
     -3.438  0.0000E+00  0.0000E+00  0.0000E+00  0.0000E+00  0.0000E+00  0.0000E+00  0.0000E+00  0.0000E+00  0.0000E+00  0.0000E+00  0.0000E+00  0.0000E+00  0.0000E+00  0.0000E+00  0.0000E+00  0.0000E+00  0.0000E+00  0.0000E+00
     -3.266  0.0000E+00  0.0000E+00  0.0000E+00  0.0000E+00  0.0000E+00  0.0000E+00  0.0000E+00  0.0000E+00  0.0000E+00  0.0000E+00  0.0000E+00  0.0000E+00  0.0000E+00  0.0000E+00  0.0000E+00  0.0000E+00  0.0000E+00  0.0000E+00
     -3.094  0.0000E+00  0.0000E+00  0.0000E+00  0.0000E+00  0.0000E+00  0.0000E+00  0.0000E+00  0.0000E+00  0.0000E+00  0.0000E+00  0.0000E+00  0.0000E+00  0.0000E+00  0.0000E+00  0.0000E+00  0.0000E+00  0.0000E+00  0.0000E+00
     -2.922  0.0000E+00  0.0000E+00  0.0000E+00  0.0000E+00  0.0000E+00  0.0000E+00  0.0000E+00  0.0000E+00  0.0000E+00  0.0000E+00  0.0000E+00  0.0000E+00  0.0000E+00  0.0000E+00  0.0000E+00  0.0000E+00  0.0000E+00  0.0000E+00
     -2.750  0.0000E+00  0.0000E+00  0.0000E+00  0.0000E+00  0.0000E+00  0.0000E+00  0.0000E+00  0.0000E+00  0.0000E+00  0.0000E+00  0.0000E+00  0.0000E+00  0.0000E+00  0.0000E+00  0.0000E+00  0.0000E+00  0.0000E+00  0.0000E+00
     -2.578  0.0000E+00  0.0000E+00  0.0000E+00  0.0000E+00  0.0000E+00  0.0000E+00  0.0000E+00  0.0000E+00  0.0000E+00  0.0000E+00  0.0000E+00  0.0000E+00  0.0000E+00  0.0000E+00  0.0000E+00  0.0000E+00  0.0000E+00  0.0000E+00
     -2.406  0.7318E-02  0.0000E+00  0.5360E-04  0.0000E+00  0.3531E-04  0.0000E+00  0.2071E-03  0.0000E+00  0.9338E-05  0.0000E+00  0.2717E-05  0.0000E+00  0.3266E-05  0.0000E+00  0.2546E-05  0.0000E+00  0.4065E-05  0.0000E+00
     -2.235  0.1195E-01  0.8449E-02  0.1338E-03  0.7260E-04  0.7687E-04  0.4633E-04  0.4380E-03  0.2577E-03  0.2730E-04  0.8450E-05  0.8568E-05  0.2579E-05  0.1029E-04  0.2878E-05  0.6167E-05  0.2307E-05  0.1303E-04  0.3670E-05
     -2.063  0.1525E-01  0.1260E-01  0.2216E-03  0.1530E-03  0.1091E-03  0.8457E-04  0.7127E-03  0.4930E-03  0.5171E-04  0.2063E-04  0.1751E-04  0.6528E-05  0.2104E-04  0.7637E-05  0.9932E-05  0.4624E-05  0.2785E-04  0.9977E-05
     -1.891  0.2038E-01  0.1628E-01  0.3944E-03  0.2590E-03  0.2094E-03  0.1284E-03  0.1109E-02  0.7990E-03  0.9654E-04  0.3846E-04  0.5095E-04  0.1411E-04  0.3960E-04  0.1507E-04  0.2257E-04  0.7758E-05  0.5407E-04  0.2035E-04
     -1.719  0.2306E-01  0.2067E-01  0.5764E-03  0.4310E-03  0.3382E-03  0.2330E-03  0.1437E-02  0.1170E-02  0.1526E-03  0.6651E-04  0.1070E-03  0.3636E-04  0.6308E-04  0.2608E-04  0.4395E-04  0.1652E-04  0.8877E-04  0.3661E-04
     -1.547  0.2308E-01  0.2268E-01  0.7348E-03  0.6116E-03  0.4839E-03  0.3649E-03  0.1787E-02  0.1473E-02  0.2477E-03  0.9955E-04  0.1775E-03  0.7118E-04  0.1131E-03  0.3902E-04  0.8139E-04  0.3015E-04  0.1671E-03  0.5708E-04
     -1.375  0.2558E-01  0.2264E-01  0.9044E-03  0.7608E-03  0.6110E-03  0.5029E-03  0.2226E-02  0.1818E-02  0.3791E-03  0.1528E-03  0.2417E-03  0.1094E-03  0.1780E-03  0.6565E-04  0.1207E-03  0.5219E-04  0.2443E-03  0.1024E-03
     -1.203  0.2824E-01  0.2490E-01  0.1083E-02  0.9275E-03  0.7449E-03  0.6262E-03  0.2727E-02  0.2240E-02  0.5383E-03  0.2216E-03  0.3173E-03  0.1443E-03  0.2580E-03  0.9688E-04  0.1690E-03  0.7450E-04  0.3362E-03  0.1441E-03
     -1.032  0.3106E-01  0.2727E-01  0.1272E-02  0.1103E-02  0.8859E-03  0.7559E-03  0.3290E-02  0.2717E-02  0.7252E-03  0.3031E-03  0.4042E-03  0.1840E-03  0.3531E-03  0.1344E-03  0.2262E-03  0.1013E-03  0.4428E-03  0.1927E-03
     -0.860  0.3312E-01  0.2978E-01  0.1499E-02  0.1288E-02  0.1115E-02  0.8918E-03  0.3924E-02  0.3250E-02  0.1032E-02  0.3975E-03  0.6310E-03  0.2283E-03  0.5267E-03  0.1781E-03  0.3540E-03  0.1325E-03  0.5988E-03  0.2482E-03
     -0.688  0.3530E-01  0.3122E-01  0.1772E-02  0.1498E-02  0.1406E-02  0.1102E-02  0.4661E-02  0.3822E-02  0.1463E-02  0.5450E-03  0.9885E-03  0.3321E-03  0.7959E-03  0.2520E-03  0.5063E-03  0.1977E-03  0.8628E-03  0.3222E-03
     -0.516  0.3644E-01  0.3272E-01  0.1964E-02  0.1750E-02  0.1653E-02  0.1363E-02  0.5389E-02  0.4450E-02  0.1999E-02  0.7328E-03  0.1392E-02  0.4843E-03  0.1153E-02  0.3548E-03  0.6742E-03  0.2699E-03  0.1213E-02  0.4366E-03
     -0.344  0.3818E-01  0.3334E-01  0.2176E-02  0.1938E-02  0.1891E-02  0.1594E-02  0.6181E-02  0.5048E-02  0.2749E-02  0.9425E-03  0.1849E-02  0.6500E-03  0.1626E-02  0.4789E-03  0.8571E-03  0.3469E-03  0.1615E-02  0.5823E-03
     -0.172  0.4100E-01  0.3417E-01  0.2445E-02  0.2124E-02  0.2132E-02  0.1808E-02  0.7124E-02  0.5664E-02  0.3873E-02  0.1211E-02  0.2410E-02  0.8258E-03  0.2308E-02  0.6292E-03  0.1053E-02  0.4284E-03  0.2081E-02  0.7427E-03
     -0.000  0.4415E-01  0.3578E-01  0.2736E-02  0.2356E-02  0.2387E-02  0.2019E-02  0.8189E-02  0.6366E-02  0.5305E-02  0.1578E-02  0.3091E-02  0.1020E-02  0.3179E-02  0.8213E-03  0.1276E-02  0.5116E-03  0.2621E-02  0.9170E-03
      0.171  0.4763E-01  0.3767E-01  0.3048E-02  0.2610E-02  0.2655E-02  0.2233E-02  0.9375E-02  0.7152E-02  0.7045E-02  0.2038E-02  0.3892E-02  0.1242E-02  0.4239E-02  0.1059E-02  0.1527E-02  0.6027E-03  0.3236E-02  0.1111E-02
      0.343  0.5087E-01  0.3972E-01  0.3390E-02  0.2879E-02  0.3045E-02  0.2453E-02  0.1112E-01  0.8012E-02  0.9439E-02  0.2582E-02  0.5633E-02  0.1495E-02  0.6011E-02  0.1338E-02  0.2056E-02  0.7033E-03  0.4640E-02  0.1326E-02
      0.515  0.5785E-01  0.4192E-01  0.4118E-02  0.3164E-02  0.3921E-02  0.2681E-02  0.1347E-01  0.8947E-02  0.1454E-01  0.3209E-02  0.1058E-01  0.1778E-02  0.9871E-02  0.1659E-02  0.3002E-02  0.8135E-03  0.7279E-02  0.1561E-02
      0.687  0.6557E-01  0.4248E-01  0.4675E-02  0.3411E-02  0.4623E-02  0.2954E-02  0.1641E-01  0.1005E-01  0.2408E-01  0.3990E-02  0.1780E-01  0.2403E-02  0.1704E-01  0.2169E-02  0.4152E-02  0.1044E-02  0.1109E-01  0.2069E-02
      0.859  0.8051E-01  0.4401E-01  0.5173E-02  0.3754E-02  0.5108E-02  0.3353E-02  0.2053E-01  0.1117E-01  0.5182E-01  0.5030E-02  0.3087E-01  0.3338E-02  0.3708E-01  0.2840E-02  0.5664E-02  0.1322E-02  0.1740E-01  0.2655E-02
      1.031  0.9501E-01  0.4590E-01  0.5158E-02  0.4141E-02  0.6078E-02  0.3817E-02  0.2483E-01  0.1237E-01  0.9239E-01  0.6368E-02  0.6147E-01  0.4640E-02  0.9425E-01  0.3717E-02  0.7951E-02  0.1639E-02  0.5041E-01  0.3391E-02
      1.203  0.9567E-01  0.4747E-01  0.5132E-02  0.4396E-02  0.6849E-02  0.4165E-02  0.3343E-01  0.1356E-01  0.1099E+00  0.8064E-02  0.7189E-01  0.5975E-02  0.1630E+00  0.4827E-02  0.1210E-01  0.1973E-02  0.9456E-01  0.4186E-02
      1.374  0.8868E-01  0.4940E-01  0.6164E-02  0.4639E-02  0.8083E-02  0.4482E-02  0.4217E-01  0.1486E-01  0.1142E+00  0.1025E-01  0.8608E-01  0.7397E-02  0.2365E+00  0.6219E-02  0.2098E-01  0.2363E-02  0.1274E+00  0.5060E-02
      1.546  0.8983E-01  0.5230E-01  0.8503E-02  0.4942E-02  0.9057E-02  0.4810E-02  0.6355E-01  0.1639E-01  0.1472E+00  0.1355E-01  0.9322E-01  0.9253E-02  0.4414E+00  0.8212E-02  0.3027E-01  0.2811E-02  0.2017E+00  0.6101E-02
      1.718  0.3924E-01  0.5580E-01  0.7571E-02  0.5249E-02  0.7659E-02  0.5157E-02  0.2159E-01  0.1819E-01  0.8483E-01  0.1799E-01  0.9807E-01  0.1153E-01  0.1717E+00  0.1094E-01  0.3636E-01  0.3317E-02  0.1196E+00  0.7438E-02
      1.890  0.2483E-01  0.5978E-01  0.7741E-02  0.5531E-02  0.4766E-02  0.5525E-02  0.1849E-01  0.2075E-01  0.6882E-01  0.2371E-01  0.1312E+00  0.1420E-01  0.1045E+00  0.1488E-01  0.5697E-01  0.3901E-02  0.1119E+00  0.9806E-02
      2.062  0.7042E-02  0.7071E-01  0.6145E-02  0.6322E-02  0.2098E-02  0.6899E-02  0.1064E-01  0.2457E-01  0.3089E-01  0.3827E-01  0.5164E-01  0.2962E-01  0.5758E-01  0.2501E-01  0.3411E-01  0.5422E-02  0.9928E-01  0.1533E-01
      2.234  0.2436E-02  0.8078E-01  0.7125E-02  0.6096E-02  0.1976E-02  0.7703E-02  0.9578E-02  0.2832E-01  0.1687E-01  0.6292E-01  0.1791E-01  0.4768E-01  0.5934E-01  0.4222E-01  0.3741E-01  0.7317E-02  0.1200E+00  0.2169E-01
      2.406  0.5862E-02  0.7498E-01  0.6631E-01  0.5540E-02  0.2509E-01  0.7717E-02  0.5949E-01  0.2978E-01  0.4258E+00  0.6494E-01  0.4811E+00  0.4972E-01  0.1960E+00  0.4678E-01  0.1034E+01  0.9070E-02  0.3884E+00  0.2311E-01
      2.577  0.3186E-02  0.6683E-01  0.1304E-01  0.4973E-02  0.7200E-02  0.7492E-02  0.8711E-02  0.3036E-01  0.1123E+00  0.6386E-01  0.1957E+00  0.4860E-01  0.1051E+00  0.4962E-01  0.3641E+00  0.1078E-01  0.1305E+00  0.2379E-01
      2.749  0.5292E-02  0.6070E-01  0.1292E-01  0.4687E-02  0.1370E-01  0.7358E-02  0.7661E-02  0.3468E-01  0.1520E+00  0.6437E-01  0.1462E+00  0.5020E-01  0.1009E+00  0.5974E-01  0.2543E+00  0.1331E-01  0.8963E-01  0.3260E-01
      2.921  0.1593E-01  0.5676E-01  0.3054E-01  0.5129E-02  0.4344E-01  0.7426E-02  0.1076E-01  0.4152E-01  0.3017E+00  0.6825E-01  0.1491E+00  0.5479E-01  0.9804E-01  0.1199E+00  0.2175E+00  0.1669E-01  0.7457E-01  0.8991E-01
      3.093  0.2462E-01  0.5398E-01  0.4465E-01  0.7558E-02  0.3636E-01  0.8384E-02  0.3972E-01  0.5321E-01  0.3748E+00  0.7495E-01  0.4616E+00  0.7071E-01  0.1077E+00  0.1950E+00  0.3575E+00  0.2478E-01  0.2023E+00  0.1387E+00
      3.265  0.1783E-01  0.3205E-01  0.3665E-01  0.8274E-02  0.2577E-01  0.6345E-02  0.3063E-01  0.3153E-01  0.3758E+00  0.5860E-01  0.3067E+00  0.7062E-01  0.6892E-01  0.1387E+00  0.3364E+00  0.3364E-01  0.1604E+00  0.9209E-01
      3.437  0.1097E-01  0.1626E-01  0.2431E-01  0.7623E-02  0.1820E-01  0.3412E-02  0.1653E-01  0.1802E-01  0.8784E-01  0.3486E-01  0.1279E+00  0.5052E-01  0.3098E-01  0.7490E-01  0.1331E+00  0.2981E-01  0.1043E+00  0.7522E-01
      3.609  0.7860E-02  0.4937E-02  0.1783E-01  0.8387E-02  0.1393E-01  0.2628E-02  0.1024E-01  0.9960E-02  0.6143E-01  0.1969E-01  0.1047E+00  0.2064E-01  0.2109E-01  0.5836E-01  0.1065E+00  0.2094E-01  0.7580E-01  0.7491E-01
      3.780  0.6267E-02  0.3256E-03  0.1318E-01  0.8767E-02  0.1044E-01  0.2293E-02  0.7137E-02  0.5607E-02  0.5154E-01  0.7455E-02  0.1085E+00  0.2973E-02  0.1882E-01  0.5777E-01  0.1055E+00  0.8263E-02  0.6132E-01  0.6956E-01