    1    1    1    2
  0.1157456E+02  0.2468172E-09  0.2468172E-09  0.2468172E-09  0.5000000E-15
  1.000000000000000E-004
  CAR 
 Fe BCC                                  
      8     44     12
 
  0.5000000E-01  0.5000000E-01  0.5000000E-01  0.8000000E-02
    1       -2.071036     -1.937572   1.000000   1.000000
    2        3.219540      5.179195   1.000000   1.000000
    3        3.219540      5.179195   1.000000   1.000000
    4        3.719902      5.744933   1.000000   0.032151
    5        4.518074      7.225593   1.000000   0.000000
    6        4.518074      7.225593   1.000000   0.000000
    7       27.898332     27.968295   0.000000   0.000000
    8       27.898332     27.968295   0.000000   0.000000
    9       31.049057     30.743267   0.000000   0.000000
   10       32.101365     32.963034   0.000000   0.000000
   11       35.820812     36.115702   0.000000   0.000000
   12       35.820812     36.115702   0.000000   0.000000
 
  0.1500000E+00  0.5000000E-01  0.5000000E-01  0.2400000E-01
    1       -0.967370     -0.802884   1.000000   1.000000
    2        2.929267      4.826696   1.000000   1.000000
    3        3.074736      4.970710   1.000000   1.000000
    4        4.371740      6.446479   1.000000  -0.003783
    5        4.419101      7.049046   1.000000   0.000000
    6        4.591821      7.317128   1.006434   0.000000
    7       23.675330     24.112317   0.000000   0.000000
    8       25.983363     26.206674   0.000000   0.000000
    9       28.764156     29.535692   0.000000   0.000000
   10       31.290847     31.144939   0.000000   0.000000
   11       35.486463     36.097453   0.000000   0.000000
   12       35.893495     36.140203   0.000000   0.000000
 
  0.2500000E+00  0.5000000E-01  0.5000000E-01  0.2400000E-01
    1        0.380368      0.772153   1.000000   1.000000
    2        2.608186      4.435872   1.000000   1.000000
    3        3.153822      4.768410   1.000000   1.000419
    4        4.479292      7.052684   1.000000   0.000000
    5        4.669094      7.390149   1.001233   0.000000
    6        5.287310      7.423534   0.742341   0.000000
    7       19.075389     19.813359   0.000000   0.000000
    8       24.272165     24.516596   0.000000   0.000000
    9       26.385369     27.074495   0.000000   0.000000
   10       30.826825     30.940541   0.000000   0.000000
   11       34.564633     35.121672   0.000000   0.000000
   12       37.860217     38.061990   0.000000   0.000000
 
  0.3500000E+00  0.5000000E-01  0.5000000E-01  0.2400000E-01
    1        0.931205      1.972908   1.000000   1.000000
    2        2.367950      4.144806   1.000000   1.000000
    3        4.195411      5.189392   1.000000   1.017011
    4        4.622758      7.160734   1.000000   0.000000
    5        4.732519      7.516793   1.040073   0.000000
    6        6.408719      8.342687  -0.033448   0.000000
    7       14.972889     16.028986   0.000000   0.000000
    8       23.100821     23.314777   0.000000   0.000000
    9       24.781707     25.398721   0.000000   0.000000
   10       30.421965     30.686127   0.000000   0.000000
   11       34.233072     34.800847   0.000000   0.000000
   12       40.123802     40.204738   0.000000   0.000000
 
  0.4500000E+00  0.5000000E-01  0.5000000E-01  0.1200000E-01
    1        0.953200      2.255397   1.000000   1.000000
    2        2.279621      4.038301   1.000000   1.000000
    3        4.636535      5.817950   1.000000   0.570355
    4        4.757964      7.206599   1.000000   0.000000
    5        4.945755      7.555583   1.068342   0.000000
    6        7.365292      8.875636  -0.001953   0.000000
    7       12.852907     14.219443   0.000000   0.000000
    8       22.681420     22.878192   0.000000   0.000000
    9       24.192653     24.773541   0.000000   0.000000
   10       30.273581     30.586576   0.000000   0.000000
   11       34.186676     34.773561   0.000000   0.000000
   12       40.041953     40.036158   0.000000   0.000000
 
 -0.5000000E-01  0.5000000E-01  0.5000000E-01  0.6000000E-02
    1       -2.468986     -2.339136   1.000000   1.000000
    2        3.342439      5.326555   1.000000   1.000000
    3        3.342445      5.326572   1.000000   1.000000
    4        3.398266      5.396701   1.000000   0.701939
    5        4.482455      7.185218   1.000000   0.000000
    6        4.607217      7.346412   1.000000   0.000000
    7       29.262751     29.094666   0.000000   0.000000
    8       30.267373     30.069192   0.000000   0.000000
    9       30.267380     30.069195   0.000000   0.000000
   10       33.783755     34.122342   0.000000   0.000000
   11       35.611160     36.424350   0.000000   0.000000
   12       35.611163     36.424353   0.000000   0.000000
 
  0.1500000E+00  0.1500000E+00  0.5000000E-01  0.2400000E-01
    1        0.279848      0.543752   1.000000   1.000000
    2        2.707305      4.534528   1.000000   1.000000
    3        2.738416      4.538643   1.000000   1.000000
    4        4.437844      7.048939   1.000000   0.000000
    5        4.679112      7.364916   1.000000   0.000000
    6        5.343938      7.457074   0.714617   0.000000
    7       21.383737     21.932616   0.000000   0.000000
    8       22.261962     22.783084   0.000000   0.000000
    9       25.629155     26.270977   0.000000   0.000000
   10       32.595636     32.452671   0.000000   0.000000
   11       36.412419     36.747021   0.000000   0.000000
   12       37.920097     38.322590   0.000000   0.000000
 
  0.2500000E+00  0.1500000E+00  0.5000000E-01  0.4800000E-01
    1        1.286737      2.022829   1.000000   1.000000
    2        2.431059      4.176697   1.000000   1.000000
    3        2.969213      4.435700   1.000000   1.000778
    4        4.534850      7.123712   1.000000   0.000000
    5        4.779493      7.517979   1.000511   0.000000
    6        6.710602      8.619513  -0.060412   0.000000
    7       17.310777     18.122064   0.000000   0.000000
    8       20.435051     20.995397   0.000000   0.000000
    9       23.877712     24.431873   0.000000   0.000000
   10       32.785185     32.813101   0.000000   0.000000
   11       37.199091     37.485978   0.000000   0.000000
   12       38.606632     38.982586   0.000000   0.000000
 
  0.3500000E+00  0.1500000E+00  0.5000000E-01  0.4800000E-01
    1        1.385025      2.680786   1.000000   1.000000
    2        2.300139      4.008476   1.000000   1.000000
    3        3.693808      4.898412   1.000000   1.013609
    4        4.646132      7.236798   1.000000   0.000000
    5        4.875705      7.576240   1.012110   0.000000
    6        8.495153      9.929255  -0.001070   0.000000
    7       13.714210     14.862640   0.000000   0.000000
    8       19.612136     20.165166   0.000000   0.000000
    9       22.991660     23.503444   0.000000   0.000000
   10       32.644092     32.775064   0.000000   0.000000
   11       37.877119     38.265375   0.000000   0.000000
   12       38.881237     39.022627   0.000000   0.000000
 
 -0.1500000E+00  0.1500000E+00  0.5000000E-01  0.2400000E-01
    1       -1.687213     -1.546789   1.000000   1.000000
    2        3.163259      5.106925   1.000000   1.000000
    3        3.309264      5.259678   1.000000   1.000000
    4        3.796211      5.833585   1.000000  -0.004653
    5        4.288465      6.914683   1.000000   0.000000
    6        4.668114      7.416257   1.000000   0.000000
    7       25.948576     26.196007   0.000000   0.000000
    8       28.633345     28.669251   0.000000   0.000000
    9       29.331670     29.486946   0.000000   0.000000
   10       32.994232     33.331625   0.000000   0.000000
   11       33.192120     33.852140   0.000000   0.000000
   12       34.195965     34.716940   0.000000   0.000000
 
  0.2500000E+00  0.2500000E+00  0.5000000E-01  0.2400000E-01
    1        1.819029      3.079326   1.000000   1.000000
    2        2.359098      3.967365   1.000000   1.000000
    3        2.947229      4.321843   1.000000   1.000000
    4        4.636061      7.234925   1.000000   0.000000
    5        4.862049      7.553958   1.000000   0.000000
    6        8.853627     10.369221  -0.000552   0.000000
    7       15.691799     16.566064   0.000000   0.000000
    8       16.691852     17.449990   0.000000   0.000000
    9       22.792409     23.325240   0.000000   0.000000
   10       34.153975     34.166743   0.000000   0.000000
   11       36.983287     37.139105   0.000000   0.000000
   12       42.873920     43.119275   0.000000   0.000000
 
  0.3500000E+00  0.2500000E+00  0.5000000E-01  0.2400000E-01
    1        1.864421      3.341059   1.000000   1.000000
    2        2.401891      3.975178   1.000000   1.000000
    3        3.010839      4.380919   1.000000   1.000449
    4        4.727259      7.341606   1.000000   0.000000
    5        4.867194      7.518608   1.000408   0.000000
    6       10.960858     12.088870   0.000000   0.000000
    7       13.163455     14.273872   0.000000   0.000000
    8       15.970656     16.759196   0.000000   0.000000
    9       22.449910     22.987075   0.000000   0.000000
   10       34.676344     34.727353   0.000000   0.000000
   11       36.985519     37.006280   0.000000   0.000000
   12       42.462845     42.952175   0.000000   0.000000
 
 -0.2500000E+00  0.2500000E+00  0.5000000E-01  0.2400000E-01
    1       -0.357792     -0.126697   1.000000   1.000000
    2        2.856310      4.735665   1.000000   1.000000
    3        3.210943      5.028734   1.000000   1.000000
    4        4.289572      6.636677   1.000000   0.000000
    5        4.518183      6.813654   1.000000   0.000000
    6        4.741655      7.488819   1.021240   0.000000
    7       21.335395     21.947235   0.000000   0.000000
    8       26.488121     26.578271   0.000000   0.000000
    9       27.840700     28.351310   0.000000   0.000000
   10       31.148738     31.630843   0.000000   0.000000
   11       32.830700     33.344019   0.000000   0.000000
   12       34.967878     35.204669   0.000000   0.000000
 
 -0.1500000E+00  0.2500000E+00  0.5000000E-01  0.2400000E-01
    1       -0.631860     -0.446388   1.000000   1.000000
    2        3.094068      4.982368   1.000000   1.000000
    3        3.095155      5.023893   1.000000   1.000385
    4        4.104066      6.415822   1.000000  -0.001814
    5        4.340778      6.616612   1.000000   0.000000
    6        4.812232      7.559912   1.014176   0.000000
    7       23.543039     23.973021   0.000000   0.000000
    8       24.756203     25.225589   0.000000   0.000000
    9       29.440894     29.580451   0.000000   0.000000
   10       30.278585     30.834755   0.000000   0.000000
   11       32.958194     33.297067   0.000000   0.000000
   12       36.215401     36.580659   0.000000   0.000000
 
 -0.3500000E+00  0.3500000E+00  0.5000000E-01  0.2400000E-01
    1        0.687767      1.397818   1.000000   1.000000
    2        2.560759      4.382016   1.000000   1.000000
    3        3.669700      5.021949   1.000000   1.010346
    4        4.527766      6.967758   1.000000   0.000000
    5        4.982913      7.543705   1.020170   0.000000
    6        5.319625      7.598060   0.541379   0.000000
    7       16.866367     17.769347   0.000000   0.000000
    8       24.805080     24.881300   0.000000   0.000000
    9       26.117877     26.723831   0.000000   0.000000
   10       30.132192     30.584929   0.000000   0.000000
   11       32.752932     33.292419   0.000000   0.000000
   12       36.794112     37.010420   0.000000   0.000000
 
 -0.2500000E+00  0.3500000E+00  0.5000000E-01  0.4800000E-01
    1        0.641619      1.074476   1.000000   1.000000
    2        2.744879      4.597497   1.000000   1.000000
    3        3.057400      4.793354   1.000000   1.000874
    4        4.231698      6.649731   1.000000   0.000000
    5        4.876594      7.286827   1.001757   0.000000
    6        5.406049      7.765513   0.591147   0.000000
    7       19.347538     20.072664   0.000000   0.000000
    8       22.494845     23.002782   0.000000   0.000000
    9       27.634291     28.005446   0.000000   0.000000
   10       30.048956     30.386656   0.000000   0.000000
   11       33.471619     33.827687   0.000000   0.000000
   12       36.796672     37.177187   0.000000   0.000000
 
 -0.4500000E+00  0.4500000E+00  0.5000000E-01  0.2400000E-01
    1        0.875539      2.119101   1.000000   1.000000
    2        2.383597      4.171652   1.000000   1.000000
    3        4.292351      5.710383   1.000000   0.682147
    4        4.588058      7.091595   1.000000   0.000000
    5        5.865652      7.872776   0.400673   0.000000
    6        6.249564      8.174411  -0.006833   0.000000
    7       13.445138     14.718082   0.000000   0.000000
    8       23.891177     23.942372   0.000000   0.000000
    9       24.984758     25.551037   0.000000   0.000000
   10       29.743350     30.235079   0.000000   0.000000
   11       32.866222     33.457244   0.000000   0.000000
   12       38.069112     38.130237   0.000000   0.000000
 
 -0.3500000E+00  0.4500000E+00  0.5000000E-01  0.4800000E-01
    1        1.162887      2.252476   1.000000   1.000000
    2        2.555455      4.342544   1.000000   1.000000
    3        3.407388      4.864952   1.000000   1.013885
    4        4.462323      6.887362   1.000000   0.000000
    5        5.247552      7.683949   1.016777   0.000000
    6        6.843083      8.666948  -0.038229   0.000000
    7       15.187427     16.206178   0.000000   0.000000
    8       21.257216     21.767152   0.000000   0.000000
    9       26.050356     26.376729   0.000000   0.000000
   10       30.204042     30.625537   0.000000   0.000000
   11       34.594721     34.863771   0.000000   0.000000
   12       36.577621     36.974246   0.000000   0.000000
 
 -0.2500000E+00  0.4500000E+00  0.5000000E-01  0.2400000E-01
    1        1.517731      2.402403   1.000000   1.000000
    2        2.409960      4.189792   1.000000   1.000000
    3        3.055817      4.694554   1.000000   1.001286
    4        4.355715      6.749175   1.000000   0.000000
    5        5.026893      7.554852   1.002547   0.000000
    6        7.079285      8.931161  -0.044176   0.000000
    7       17.519708     18.341323   0.000000   0.000000
    8       18.301479     18.994424   0.000000   0.000000
    9       27.214620     27.655636   0.000000   0.000000
   10       29.840756     30.023976   0.000000   0.000000
   11       33.394337     33.731684   0.000000   0.000000
   12       41.036290     41.360230   0.000000   0.000000
 
 -0.4500000E+00 -0.4500000E+00  0.5000000E-01  0.2400000E-01
    1        1.170768      2.533655   1.000000   1.000000
    2        2.492564      4.269248   1.000000   1.000000
    3        3.644789      5.138408   1.000000   1.020872
    4        4.491665      6.961906   1.000000   0.000000
    5        5.541515      7.875211   0.794716   0.000000
    6        8.159098      9.483186  -0.000679   0.000000
    7       12.915712     14.238640   0.000000   0.000000
    8       20.809132     21.310414   0.000000   0.000000
    9       25.490506     25.789137   0.000000   0.000000
   10       30.237190     30.700935   0.000000   0.000000
   11       35.786642     35.845113   0.000000   0.000000
   12       35.913904     36.420020   0.000000   0.000000
 
 -0.3500000E+00 -0.4500000E+00  0.5000000E-01  0.4800000E-01
    1        1.730113      3.133918   1.000000   1.000000
    2        2.448657      4.139209   1.000000   1.000000
    3        2.970396      4.534554   1.000000   1.001223
    4        4.571762      6.986532   1.000000   0.000000
    5        5.173364      7.599219   1.020759   0.000000
    6        9.409107     10.763929  -0.000111   0.000000
    7       14.000971     15.066594   0.000000   0.000000
    8       17.152801     17.879203   0.000000   0.000000
    9       26.536655     26.957442   0.000000   0.000000
   10       30.490930     30.740206   0.000000   0.000000
   11       33.576013     33.728072   0.000000   0.000000
   12       40.014181     40.694473   0.000000   0.000000
 
 -0.3500000E+00 -0.3500000E+00  0.5000000E-01  0.8000000E-02
    1        2.179864      3.786089   1.000000   1.000000
    2        2.465852      4.052210   1.000000   1.000000
    3        2.465858      4.052219   1.000000   1.000411
    4        4.905645      7.317701   1.000000   0.000000
    5        4.905646      7.317712   1.008489   0.000000
    6       12.351748     13.429368   0.000000   0.000000
    7       12.351758     13.429378   0.000000   0.000000
    8       14.909752     15.816576   0.000000   0.000000
    9       26.648858     27.145722   0.000000   0.000000
   10       31.925017     32.056363   0.000000   0.000000
   11       31.925030     32.056367   0.000000   0.000000
   12       39.544163     40.444944   0.000000   0.000000
 
  0.1500000E+00  0.1500000E+00  0.1500000E+00  0.8000000E-02
    1        1.503792      1.955753   1.000000   1.000000
    2        2.427076      4.150240   1.000000   1.000000
    3        2.427076      4.150240   1.000000   1.000000
    4        4.650658      7.360366   1.000000   0.000000
    5        4.650658      7.360366   1.000000   0.000000
    6        6.728236      8.657175  -0.060659   0.000000
    7       19.730113     20.330237   0.000000   0.000000
    8       19.730113     20.330237   0.000000   0.000000
    9       21.357341     22.071651   0.000000   0.000000
   10       35.472213     35.173447   0.000000   0.000000
   11       39.275564     39.512753   0.000000   0.000000
   12       39.275564     39.512753   0.000000   0.000000
 
  0.2500000E+00  0.1500000E+00  0.1500000E+00  0.2400000E-01
    1        1.915749      3.066888   1.000000   1.000000
    2        2.271756      3.922250   1.000000   1.000000
    3        2.872920      4.159822   1.000000   1.000534
    4        4.703602      7.399052   1.000000   0.000000
    5        4.750754      7.529579   1.000000   0.000000
    6        8.655999     10.216709  -0.001024   0.000000
    7       15.858324     16.713459   0.000000   0.000000
    8       18.688040     19.304040   0.000000   0.000000
    9       19.680320     20.334705   0.000000   0.000000
   10       36.483437     36.353626   0.000000   0.000000
   11       40.193255     40.449571   0.000000   0.000000
   12       41.542777     41.583763   0.000000   0.000000
 
  0.3500000E+00  0.1500000E+00  0.1500000E+00  0.1200000E-01
    1        1.828636      3.209967   1.000000   1.000000
    2        2.224052      3.848421   1.000000   1.000000
    3        3.310636      4.543521   1.000000   1.002274
    4        4.738361      7.430420   1.000000   0.000000
    5        4.777155      7.581213   1.000000   0.000000
    6       10.455029     11.591195   0.000000   0.000000
    7       13.241768     14.394543   0.000000   0.000000
    8       18.331151     18.949463   0.000000   0.000000
    9       19.211643     19.848859   0.000000   0.000000
   10       36.483031     36.435916   0.000000   0.000000
   11       40.777002     41.203713   0.000000   0.000000
   12       41.669755     41.683665   0.000000   0.000000
 
 -0.1500000E+00  0.1500000E+00  0.1500000E+00  0.6000000E-02
    1       -0.957486     -0.794361   1.000000   1.000000
    2        3.404332      5.343937   1.000000   1.000000
    3        3.404338      5.343953   1.000000   0.999581
    4        3.810617      5.857055   1.000000  -0.001778
    5        3.813669      6.317646   1.000000   0.000000
    6        4.876576      7.635853   1.009662   0.000000
    7       25.528878     25.703348   0.000000   0.000000
    8       27.103541     27.570449   0.000000   0.000000
    9       27.103555     27.570459   0.000000   0.000000
   10       28.845297     29.232787   0.000000   0.000000
   11       35.585429     35.901179   0.000000   0.000000
   12       35.585435     35.901194   0.000000   0.000000
 
  0.2500000E+00  0.2500000E+00  0.1500000E+00  0.2400000E-01
    1        2.112352      3.598090   1.000000   1.000000
    2        2.412047      3.897167   1.000000   1.000000
    3        2.776710      4.085439   1.000000   1.000000
    4        4.763566      7.512911   1.000000   0.000000
    5        4.787496      7.571245   1.000000   0.000000
    6       11.252688     12.414700   0.000000   0.000000
    7       14.538155     15.432471   0.000000   0.000000
    8       15.693104     16.502657   0.000000   0.000000
    9       18.557675     19.199264   0.000000   0.000000
   10       39.061072     38.943671   0.000000   0.000000
   11       40.813418     40.806060   0.000000   0.000000
   12       44.285592     44.329475   0.000000   0.000000
 
 -0.2500000E+00  0.2500000E+00  0.1500000E+00  0.2400000E-01
    1        0.245370      0.536701   1.000000   1.000000
    2        3.104237      5.120917   1.000000   1.000000
    3        3.257706      5.162288   1.000000   1.010640
    4        3.847539      6.085860   1.000000   0.000000
    5        4.432984      6.540889   1.000000   0.000000
    6        5.156037      7.815478   0.902164   0.000000
    7       21.897912     22.495526   0.000000   0.000000
    8       24.961151     25.538447   0.000000   0.000000
    9       25.225152     25.553401   0.000000   0.000000
   10       28.805004     29.204665   0.000000   0.000000
   11       34.956610     35.359252   0.000000   0.000000
   12       36.290384     36.609749   0.000000   0.000000
 
 -0.3500000E+00  0.3500000E+00  0.1500000E+00  0.2400000E-01
    1        1.157779      1.953382   1.000000   1.000000
    2        2.852807      4.651273   1.000000   1.000000
    3        3.016338      4.874909   1.000000   1.028371
    4        4.221584      6.454552   1.000000   0.000000
    5        5.246653      7.458927   1.015837   0.000000
    6        6.050424      8.219221   0.031368   0.000000
    7       17.386369     18.239172   0.000000   0.000000
    8       23.193369     23.796653   0.000000   0.000000
    9       24.005099     24.320930   0.000000   0.000000
   10       30.371049     30.711067   0.000000   0.000000
   11       33.868139     34.311966   0.000000   0.000000
   12       36.151241     36.547877   0.000000   0.000000
 
 -0.2500000E+00  0.3500000E+00  0.1500000E+00  0.2400000E-01
    1        1.212916      1.840104   1.000000   1.000000
    2        2.589023      4.591570   1.000000   1.000000
    3        3.385733      5.242308   1.000000   1.009212
    4        3.988218      6.131150   1.000000   0.000000
    5        4.932573      7.166220   1.004467   0.000000
    6        6.037573      8.255110   0.039984   0.000000
    7       19.906067     20.629285   0.000000   0.000000
    8       20.557302     21.186864   0.000000   0.000000
    9       26.082646     26.460181   0.000000   0.000000
   10       27.538929     27.944709   0.000000   0.000000
   11       34.492804     34.914481   0.000000   0.000000
   12       39.701166     40.013066   0.000000   0.000000
 
 -0.4500000E+00  0.4500000E+00  0.1500000E+00  0.2400000E-01
    1        1.275076      2.643253   1.000000   1.000000
    2        2.865320      4.662703   1.000000   1.000000
    3        3.047458      4.695709   1.000000   1.035902
    4        4.293388      6.619625   1.000000   0.000000
    5        5.814073      8.115444   0.204916   0.000000
    6        7.971068      9.344352  -0.006119   0.000000
    7       13.714627     14.887992   0.000000   0.000000
    8       22.143525     22.709432   0.000000   0.000000
    9       23.340148     23.657836   0.000000   0.000000
   10       32.416034     32.633039   0.000000   0.000000
   11       33.307059     33.768812   0.000000   0.000000
   12       35.097040     35.575433   0.000000   0.000000
 
 -0.3500000E+00  0.4500000E+00  0.1500000E+00  0.4800000E-01
    1        1.634194      2.879188   1.000000   1.000000
    2        2.364403      4.145361   1.000000   1.000000
    3        3.195345      5.037831   1.000000   1.033329
    4        4.318845      6.516851   1.000000   0.000000
    5        5.400800      7.685821   1.000224   0.000000
    6        8.040023      9.606978  -0.008711   0.000000
    7       15.864522     16.776460   0.000000   0.000000
    8       19.015179     19.677098   0.000000   0.000000
    9       25.526927     25.903455   0.000000   0.000000
   10       28.986938     29.320921   0.000000   0.000000
   11       33.458830     33.886014   0.000000   0.000000
   12       38.077326     38.744570   0.000000   0.000000
 
 -0.4500000E+00 -0.4500000E+00  0.1500000E+00  0.2400000E-01
    1        1.587083      3.154777   1.000000   1.000000
    2        2.524450      4.172304   1.000000   1.000000
    3        3.016165      4.844371   1.000000   1.044866
    4        4.408679      6.636434   1.000000   0.000000
    5        5.653679      7.945748   0.516258   0.000000
    6        9.990814     11.111129   0.000000   0.000000
    7       13.173789     14.351999   0.000000   0.000000
    8       18.535950     19.182504   0.000000   0.000000
    9       25.166557     25.540168   0.000000   0.000000
   10       30.747273     30.927408   0.000000   0.000000
   11       32.200577     32.726763   0.000000   0.000000
   12       36.746458     37.495843   0.000000   0.000000
 
 -0.3500000E+00 -0.4500000E+00  0.1500000E+00  0.2400000E-01
    1        2.011083      3.619384   1.000000   1.000000
    2        2.056632      3.782088   1.000000   1.000000
    3        2.939231      4.708471   1.000000   1.067212
    4        4.804545      7.018957   1.000000   0.000000
    5        5.311376      7.582078   1.076747   0.000000
    6       10.864794     12.033261   0.000000   0.000000
    7       14.364965     15.324998   0.000000   0.000000
    8       15.629706     16.426049   0.000000   0.000000
    9       27.534078     27.838664   0.000000   0.000000
   10       28.490604     28.813098   0.000000   0.000000
   11       31.423287     31.909092   0.000000   0.000000
   12       36.699654     37.496715   0.000000   0.000000
 
  0.2500000E+00  0.2500000E+00  0.2500000E+00  0.2000000E-02
    1        2.453591      3.890321   1.000000   1.000000
    2        2.453591      3.890336   1.000000   1.000000
    3        2.453599      3.890336   1.000000   1.000000
    4        4.789238      7.597329   1.000000   0.000000
    5        4.789238      7.597329   1.000000   0.000000
    6       14.143054     15.041879   0.000000   0.000000
    7       14.143054     15.041897   0.000000   0.000000
    8       14.143062     15.041897   0.000000   0.000000
    9       16.259788     16.990912   0.000000   0.000000
   10       44.304197     44.024625   0.000000   0.000000
   11       44.304201     44.024627   0.000000   0.000000
   12       44.304207     44.024627   0.000000   0.000000
 
 -0.2500000E+00  0.2500000E+00  0.2500000E+00  0.6000000E-02
    1        1.079183      1.626214   1.000000   1.000000
    2        2.726209      4.936115   1.000000   1.000000
    3        3.779099      5.703465   1.000000   0.630313
    4        3.779104      5.703481   1.000000   0.000000
    5        4.491813      6.621497   1.000000   0.000000
    6        5.841171      8.184621   0.139949   0.000000
    7       22.501260     23.121636   0.000000   0.000000
    8       22.501275     23.121646   0.000000   0.000000
    9       23.066798     23.582588   0.000000   0.000000
   10       25.339782     25.759564   0.000000   0.000000
   11       39.222151     39.520609   0.000000   0.000000
   12       39.222160     39.520623   0.000000   0.000000
 
 -0.3500000E+00  0.3500000E+00  0.2500000E+00  0.2400000E-01
    1        1.566002      2.650622   1.000000   1.000000
    2        2.181277      4.187841   1.000000   1.000000
    3        3.816187      5.747641   1.000000   0.390385
    4        4.147700      6.170418   1.000000   0.000000
    5        5.145351      7.345554   1.046664   0.000000
    6        7.356946      9.058497  -0.019228   0.000000
    7       18.339202     19.080735   0.000000   0.000000
    8       20.553670     21.144638   0.000000   0.000000
    9       23.017621     23.576491   0.000000   0.000000
   10       25.868105     26.315810   0.000000   0.000000
   11       36.878813     37.541380   0.000000   0.000000
   12       38.098650     38.515800   0.000000   0.000000
 
 -0.4500000E+00  0.4500000E+00  0.2500000E+00  0.2400000E-01
    1        1.550042      3.170926   1.000000   1.000000
    2        2.035218      3.778686   1.000000   1.000000
    3        3.735409      5.657311   1.000000   0.517352
    4        4.310814      6.380310   1.000000   0.000000
    5        5.731272      8.020904   0.206286   0.000000
    6        9.873397     11.003266   0.000000   0.000000
    7       14.385973     15.344533   0.000000   0.000000
    8       19.420127     19.954301   0.000000   0.000000
    9       22.700403     23.287404   0.000000   0.000000
   10       27.837996     28.172085   0.000000   0.000000
   11       33.443333     34.244764   0.000000   0.000000
   12       37.449417     37.866192   0.000000   0.000000
 
 -0.3500000E+00  0.4500000E+00  0.2500000E+00  0.2400000E-01
    1        1.646157      3.158286   1.000000   1.000000
    2        1.740595      3.647456   1.000000   1.000000
    3        3.891112      5.812156   1.000000   0.228395
    4        4.669403      6.741358   1.000000   0.000000
    5        5.456196      7.700373   1.024776   0.000000
    6        9.680042     10.862734   0.000000   0.000000
    7       16.729871     17.493697   0.000000   0.000000
    8       17.226720     17.865046   0.000000   0.000000
    9       23.870750     24.410750   0.000000   0.000000
   10       25.477180     25.952178   0.000000   0.000000
   11       32.955407     33.725652   0.000000   0.000000
   12       38.298144     38.734501   0.000000   0.000000
 
 -0.4500000E+00 -0.4500000E+00  0.2500000E+00  0.2400000E-01
    1        1.539556      3.330413   1.000000   1.000000
    2        1.685899      3.430336   1.000000   1.000000