 running on    4 total cores
 distrk:  each k-point on    4 cores,    1 groups
 distr:  one band on    1 cores,    4 groups
 using from now: INCAR     
 vasp.5.4.1 24Jun15 (build Jul 19 2016 16:50:41) complex                        
  
 POSCAR found type information on POSCAR  Fe
 POSCAR found :  1 types and       1 ions
 LDA part: xc-table for Pade appr. of Perdew
 POSCAR, INCAR and KPOINTS ok, starting setup
 FFT: planning ...
 WAVECAR not read
 entering main loop
       N       E                     dE             d eps       ncg     rms          rms(c)
DAV:   1     0.130655763999E+02    0.13066E+02   -0.29680E+03  2364   0.574E+02
DAV:   2    -0.831892205619E+01   -0.21384E+02   -0.19983E+02  2172   0.102E+02
DAV:   3    -0.869726787588E+01   -0.37835E+00   -0.37654E+00  2468   0.155E+01
DAV:   4    -0.869843789019E+01   -0.11700E-02   -0.11651E-02  2376   0.797E-01
DAV:   5    -0.869844428754E+01   -0.63973E-05   -0.63756E-05  2476   0.616E-02    0.121E+01
DAV:   6    -0.829988096640E+01    0.39856E+00   -0.94826E+00  2376   0.372E+01    0.494E+00
DAV:   7    -0.825812282977E+01    0.41758E-01   -0.44058E-01  2476   0.777E+00    0.308E+00
DAV:   8    -0.824983167885E+01    0.82912E-02   -0.61615E-03  2544   0.555E-01    0.125E+00
DAV:   9    -0.824391744257E+01    0.59142E-02   -0.75268E-03  2840   0.548E-01    0.198E-01
DAV:  10    -0.824384360161E+01    0.73841E-04   -0.76445E-04  2356   0.347E-01    0.486E-02
DAV:  11    -0.824385993125E+01   -0.16330E-04   -0.39107E-05  2416   0.552E-02    0.372E-02
DAV:  12    -0.824386034612E+01   -0.41487E-06   -0.31315E-06  2312   0.145E-02
   1 F= -.82438603E+01 E0= -.82438603E+01  d E =0.000000E+00  mag=     2.2151
 writing wavefunctions
