PROCAR lm decomposed
# of k-points:   44         # of bands:  12         # of ions:   1

 k-point    1 :    0.05000000 0.05000000 0.05000000     weight = 0.00800000

band   1 # energy   -2.07103618 # occ.  1.00000000
 
ion      s     py     pz     px    dxy    dyz    dz2    dxz    dx2    tot
  1  0.674  0.014  0.014  0.014  0.001  0.001  0.000  0.001  0.000  0.718
 
band   2 # energy    3.21954031 # occ.  1.00000000
 
ion      s     py     pz     px    dxy    dyz    dz2    dxz    dx2    tot
  1  0.000  0.001  0.000  0.000  0.185  0.194  0.003  0.578  0.008  0.970
 
band   3 # energy    3.21954031 # occ.  1.00000000
 
ion      s     py     pz     px    dxy    dyz    dz2    dxz    dx2    tot
  1  0.000  0.000  0.001  0.001  0.453  0.444  0.008  0.060  0.003  0.970
 
band   4 # energy    3.71990176 # occ.  1.00000000
 
ion      s     py     pz     px    dxy    dyz    dz2    dxz    dx2    tot
  1  0.001  0.002  0.002  0.002  0.322  0.322  0.000  0.322  0.000  0.974
 
band   5 # energy    4.51807433 # occ.  1.00000000
 
ion      s     py     pz     px    dxy    dyz    dz2    dxz    dx2    tot
  1  0.000  0.000  0.000  0.000  0.009  0.002  0.936  0.002  0.019  0.968
 
band   6 # energy    4.51807433 # occ.  1.00000000
 
ion      s     py     pz     px    dxy    dyz    dz2    dxz    dx2    tot
  1  0.000  0.000  0.000  0.000  0.000  0.006  0.019  0.007  0.936  0.968
 
band   7 # energy   27.89833179 # occ.  0.00000000
 
ion      s     py     pz     px    dxy    dyz    dz2    dxz    dx2    tot
  1  0.000  0.005  0.046  0.022  0.139  0.068  0.162  0.014  0.009  0.466
 
band   8 # energy   27.89833179 # occ.  0.00000000
 
ion      s     py     pz     px    dxy    dyz    dz2    dxz    dx2    tot
  1  0.000  0.044  0.003  0.026  0.008  0.080  0.009  0.134  0.162  0.466
 
band   9 # energy   31.04905749 # occ.  0.00000000
 
ion      s     py     pz     px    dxy    dyz    dz2    dxz    dx2    tot
  1  0.000  0.000  0.000  0.000  0.000  0.000  0.000  0.000  0.000  0.000
 
band  10 # energy   32.10136476 # occ.  0.00000000
 
ion      s     py     pz     px    dxy    dyz    dz2    dxz    dx2    tot
  1  0.052  0.165  0.165  0.165  0.170  0.170  0.000  0.170  0.000  1.058
 
band  11 # energy   35.82081156 # occ.  0.00000000
 
ion      s     py     pz     px    dxy    dyz    dz2    dxz    dx2    tot
  1  0.000  0.054  0.213  0.064  0.014  0.004  0.079  0.004  0.003  0.434
 
band  12 # energy   35.82081156 # occ.  0.00000000
 
ion      s     py     pz     px    dxy    dyz    dz2    dxz    dx2    tot
  1  0.000  0.166  0.008  0.157  0.001  0.010  0.003  0.011  0.079  0.434
 

 k-point    2 :    0.15000000 0.05000000 0.05000000     weight = 0.02400000

band   1 # energy   -0.96736980 # occ.  1.00000000
 
ion      s     py     pz     px    dxy    dyz    dz2    dxz    dx2    tot
  1  0.585  0.048  0.048  0.012  0.003  0.021  0.001  0.003  0.003  0.725
 
band   2 # energy    2.92926701 # occ.  1.00000000
 
ion      s     py     pz     px    dxy    dyz    dz2    dxz    dx2    tot
  1  0.000  0.001  0.001  0.000  0.470  0.000  0.014  0.470  0.005  0.962
 
band   3 # energy    3.07473588 # occ.  1.00000000
 
ion      s     py     pz     px    dxy    dyz    dz2    dxz    dx2    tot
  1  0.004  0.008  0.008  0.002  0.082  0.662  0.026  0.082  0.078  0.951
 
band   4 # energy    4.37173979 # occ.  1.00000000
 
ion      s     py     pz     px    dxy    dyz    dz2    dxz    dx2    tot
  1  0.006  0.005  0.005  0.007  0.390  0.094  0.018  0.390  0.055  0.970
 
band   5 # energy    4.41910114 # occ.  1.00000000
 
ion      s     py     pz     px    dxy    dyz    dz2    dxz    dx2    tot
  1  0.000  0.001  0.001  0.000  0.008  0.178  0.194  0.008  0.582  0.969
 
band   6 # energy    4.59182144 # occ.  1.00643367
 
ion      s     py     pz     px    dxy    dyz    dz2    dxz    dx2    tot
  1  0.000  0.000  0.000  0.000  0.010  0.000  0.714  0.010  0.238  0.972
 
band   7 # energy   23.67532957 # occ.  0.00000000
 
ion      s     py     pz     px    dxy    dyz    dz2    dxz    dx2    tot
  1  0.029  0.093  0.093  0.023  0.009  0.288  0.041  0.009  0.124  0.709
 
band   8 # energy   25.98336335 # occ.  0.00000000
 
ion      s     py     pz     px    dxy    dyz    dz2    dxz    dx2    tot
  1  0.000  0.081  0.081  0.000  0.138  0.000  0.098  0.138  0.033  0.569
 
band   9 # energy   28.76415639 # occ.  0.00000000
 
ion      s     py     pz     px    dxy    dyz    dz2    dxz    dx2    tot
  1  0.095  0.079  0.079  0.345  0.139  0.019  0.007  0.139  0.022  0.924
 
band  10 # energy   31.29084707 # occ.  0.00000000
 
ion      s     py     pz     px    dxy    dyz    dz2    dxz    dx2    tot
  1  0.000  0.002  0.002  0.000  0.118  0.000  0.017  0.118  0.006  0.264
 
band  11 # energy   35.48646303 # occ.  0.00000000
 
ion      s     py     pz     px    dxy    dyz    dz2    dxz    dx2    tot
  1  0.027  0.072  0.072  0.171  0.073  0.110  0.074  0.073  0.222  0.896
 
band  12 # energy   35.89349516 # occ.  0.00000000
 
ion      s     py     pz     px    dxy    dyz    dz2    dxz    dx2    tot
  1  0.000  0.123  0.123  0.000  0.107  0.000  0.002  0.107  0.001  0.463
 

 k-point    3 :    0.25000000 0.05000000 0.05000000     weight = 0.02400000

band   1 # energy    0.38036805 # occ.  1.00000000
 
ion      s     py     pz     px    dxy    dyz    dz2    dxz    dx2    tot
  1  0.397  0.060  0.060  0.011  0.003  0.175  0.015  0.003  0.044  0.768
 
band   2 # energy    2.60818580 # occ.  1.00000000
 
ion      s     py     pz     px    dxy    dyz    dz2    dxz    dx2    tot
  1  0.000  0.002  0.002  0.000  0.470  0.000  0.009  0.470  0.003  0.956
 
band   3 # energy    3.15382164 # occ.  1.00000000
 
ion      s     py     pz     px    dxy    dyz    dz2    dxz    dx2    tot
  1  0.051  0.055  0.055  0.001  0.077  0.383  0.048  0.077  0.145  0.893
 
band   4 # energy    4.47929165 # occ.  1.00000000
 
ion      s     py     pz     px    dxy    dyz    dz2    dxz    dx2    tot
  1  0.002  0.001  0.001  0.000  0.015  0.245  0.174  0.015  0.522  0.975
 
band   5 # energy    4.66909443 # occ.  1.00123315
 
ion      s     py     pz     px    dxy    dyz    dz2    dxz    dx2    tot
  1  0.000  0.000  0.000  0.000  0.007  0.000  0.723  0.007  0.241  0.977
 
band   6 # energy    5.28730992 # occ.  0.74234073
 
ion      s     py     pz     px    dxy    dyz    dz2    dxz    dx2    tot
  1  0.019  0.016  0.016  0.010  0.389  0.123  0.000  0.389  0.000  0.963
 
band   7 # energy   19.07538882 # occ.  0.00000000
 
ion      s     py     pz     px    dxy    dyz    dz2    dxz    dx2    tot
  1  0.122  0.129  0.129  0.010  0.004  0.293  0.028  0.004  0.084  0.803
 
band   8 # energy   24.27216536 # occ.  0.00000000
 
ion      s     py     pz     px    dxy    dyz    dz2    dxz    dx2    tot
  1  0.000  0.114  0.114  0.000  0.126  0.000  0.052  0.126  0.017  0.548
 
band   9 # energy   26.38536873 # occ.  0.00000000
 
ion      s     py     pz     px    dxy    dyz    dz2    dxz    dx2    tot
  1  0.098  0.024  0.024  0.490  0.082  0.001  0.012  0.082  0.035  0.848
 
band  10 # energy   30.82682526 # occ.  0.00000000
 
ion      s     py     pz     px    dxy    dyz    dz2    dxz    dx2    tot
  1  0.000  0.006  0.006  0.000  0.310  0.000  0.012  0.310  0.004  0.649
 
band  11 # energy   34.56463344 # occ.  0.00000000
 
ion      s     py     pz     px    dxy    dyz    dz2    dxz    dx2    tot
  1  0.082  0.047  0.047  0.127  0.032  0.015  0.123  0.032  0.369  0.875
 
band  12 # energy   37.86021688 # occ.  0.00000000
 
ion      s     py     pz     px    dxy    dyz    dz2    dxz    dx2    tot
  1  0.000  0.110  0.110  0.000  0.064  0.000  0.046  0.064  0.015  0.408
 

 k-point    4 :    0.35000000 0.05000000 0.05000000     weight = 0.02400000

band   1 # energy    0.93120544 # occ.  1.00000000
 
ion      s     py     pz     px    dxy    dyz    dz2    dxz    dx2    tot
  1  0.175  0.014  0.014  0.010  0.000  0.431  0.052  0.000  0.155  0.853
 
band   2 # energy    2.36794994 # occ.  1.00000000
 
ion      s     py     pz     px    dxy    dyz    dz2    dxz    dx2    tot
  1  0.000  0.002  0.002  0.000  0.472  0.000  0.003  0.472  0.001  0.952
 
band   3 # energy    4.19541134 # occ.  1.00000000
 
ion      s     py     pz     px    dxy    dyz    dz2    dxz    dx2    tot
  1  0.074  0.130  0.130  0.000  0.151  0.013  0.048  0.151  0.143  0.841
 
band   4 # energy    4.62275804 # occ.  1.00000000
 
ion      s     py     pz     px    dxy    dyz    dz2    dxz    dx2    tot
  1  0.000  0.012  0.012  0.001  0.036  0.338  0.134  0.036  0.403  0.973
 
band   5 # energy    4.73251872 # occ.  1.04007281
 
ion      s     py     pz     px    dxy    dyz    dz2    dxz    dx2    tot
  1  0.000  0.000  0.000  0.000  0.002  0.000  0.733  0.002  0.244  0.982
 
band   6 # energy    6.40871898 # occ. -0.03344778
 
ion      s     py     pz     px    dxy    dyz    dz2    dxz    dx2    tot
  1  0.045  0.079  0.079  0.006  0.306  0.086  0.001  0.306  0.003  0.911
 
band   7 # energy   14.97288920 # occ.  0.00000000
 
ion      s     py     pz     px    dxy    dyz    dz2    dxz    dx2    tot
  1  0.273  0.086  0.086  0.008  0.003  0.308  0.022  0.003  0.066  0.854
 
band   8 # energy   23.10082078 # occ.  0.00000000
 
ion      s     py     pz     px    dxy    dyz    dz2    dxz    dx2    tot
  1  0.000  0.132  0.132  0.000  0.112  0.000  0.014  0.112  0.005  0.505
 
band   9 # energy   24.78170675 # occ.  0.00000000
 
ion      s     py     pz     px    dxy    dyz    dz2    dxz    dx2    tot
  1  0.092  0.004  0.004  0.586  0.025  0.012  0.011  0.025  0.032  0.791
 
band  10 # energy   30.42196471 # occ.  0.00000000
 
ion      s     py     pz     px    dxy    dyz    dz2    dxz    dx2    tot
  1  0.000  0.006  0.006  0.000  0.419  0.000  0.003  0.419  0.001  0.856
 
band  11 # energy   34.23307192 # occ.  0.00000000
 
ion      s     py     pz     px    dxy    dyz    dz2    dxz    dx2    tot
  1  0.138  0.016  0.016  0.103  0.007  0.003  0.158  0.007  0.473  0.921
 
band  12 # energy   40.12380223 # occ.  0.00000000
 
ion      s     py     pz     px    dxy    dyz    dz2    dxz    dx2    tot
  1  0.033  0.017  0.017  0.003  0.003  0.192  0.000  0.003  0.000  0.269
 

 k-point    5 :    0.45000000 0.05000000 0.05000000     weight = 0.01200000

band   1 # energy    0.95319957 # occ.  1.00000000
 
ion      s     py     pz     px    dxy    dyz    dz2    dxz    dx2    tot
  1  0.122  0.000  0.000  0.010  0.000  0.483  0.065  0.000  0.194  0.874
 
band   2 # energy    2.27962073 # occ.  1.00000000
 
ion      s     py     pz     px    dxy    dyz    dz2    dxz    dx2    tot
  1  0.000  0.002  0.002  0.000  0.473  0.000  0.000  0.473  0.000  0.951
 
band   3 # energy    4.63653515 # occ.  1.00000000
 
ion      s     py     pz     px    dxy    dyz    dz2    dxz    dx2    tot
  1  0.012  0.000  0.000  0.000  0.000  0.301  0.167  0.000  0.500  0.980
 
band   4 # energy    4.75796424 # occ.  1.00000000
 
ion      s     py     pz     px    dxy    dyz    dz2    dxz    dx2    tot
  1  0.000  0.000  0.000  0.000  0.000  0.000  0.738  0.000  0.246  0.984
 
band   5 # energy    4.94575456 # occ.  1.06834231
 
ion      s     py     pz     px    dxy    dyz    dz2    dxz    dx2    tot
  1  0.000  0.136  0.136  0.000  0.298  0.000  0.000  0.298  0.000  0.868
 
band   6 # energy    7.36529237 # occ. -0.00195318
 
ion      s     py     pz     px    dxy    dyz    dz2    dxz    dx2    tot
  1  0.000  0.206  0.206  0.000  0.203  0.000  0.000  0.203  0.000  0.818
 
band   7 # energy   12.85290736 # occ.  0.00000000
 
ion      s     py     pz     px    dxy    dyz    dz2    dxz    dx2    tot
  1  0.426  0.000  0.000  0.011  0.000  0.375  0.022  0.000  0.067  0.900
 
band   8 # energy   22.68142047 # occ.  0.00000000
 
ion      s     py     pz     px    dxy    dyz    dz2    dxz    dx2    tot
  1  0.000  0.137  0.137  0.000  0.108  0.000  0.000  0.108  0.000  0.490
 
band   9 # energy   24.19265273 # occ.  0.00000000
 
ion      s     py     pz     px    dxy    dyz    dz2    dxz    dx2    tot
  1  0.090  0.000  0.000  0.621  0.000  0.016  0.010  0.000  0.030  0.767
 
band  10 # energy   30.27358051 # occ.  0.00000000
 
ion      s     py     pz     px    dxy    dyz    dz2    dxz    dx2    tot
  1  0.000  0.006  0.006  0.000  0.456  0.000  0.000  0.456  0.000  0.924
 
band  11 # energy   34.18667568 # occ.  0.00000000
 
ion      s     py     pz     px    dxy    dyz    dz2    dxz    dx2    tot
  1  0.164  0.000  0.000  0.096  0.000  0.015  0.171  0.000  0.513  0.960
 
band  12 # energy   40.04195301 # occ.  0.00000000
 
ion      s     py     pz     px    dxy    dyz    dz2    dxz    dx2    tot
  1  0.000  0.034  0.034  0.000  0.004  0.000  0.000  0.004  0.000  0.076
 

 k-point    6 :   -0.05000000 0.05000000 0.05000000     weight = 0.00600000

band   1 # energy   -2.46898638 # occ.  1.00000000
 
ion      s     py     pz     px    dxy    dyz    dz2    dxz    dx2    tot
  1  0.702  0.000  0.000  0.014  0.000  0.000  0.000  0.000  0.000  0.717
 
band   2 # energy    3.34243928 # occ.  1.00000000
 
ion      s     py     pz     px    dxy    dyz    dz2    dxz    dx2    tot
  1  0.000  0.001  0.001  0.000  0.486  0.000  0.000  0.486  0.000  0.974
 
band   3 # energy    3.34244499 # occ.  1.00000000
 
ion      s     py     pz     px    dxy    dyz    dz2    dxz    dx2    tot
  1  0.000  0.001  0.001  0.000  0.486  0.000  0.000  0.486  0.000  0.974
 
band   4 # energy    3.39826573 # occ.  1.00000000
 
ion      s     py     pz     px    dxy    dyz    dz2    dxz    dx2    tot
  1  0.000  0.000  0.000  0.000  0.000  0.975  0.000  0.000  0.000  0.975
 
band   5 # energy    4.48245457 # occ.  1.00000000
 
ion      s     py     pz     px    dxy    dyz    dz2    dxz    dx2    tot
  1  0.000  0.000  0.000  0.000  0.000  0.000  0.724  0.000  0.241  0.966
 
band   6 # energy    4.60721690 # occ.  1.00000000
 
ion      s     py     pz     px    dxy    dyz    dz2    dxz    dx2    tot
  1  0.000  0.000  0.000  0.000  0.000  0.000  0.243  0.000  0.728  0.971
 
band   7 # energy   29.26275138 # occ.  0.00000000
 
ion      s     py     pz     px    dxy    dyz    dz2    dxz    dx2    tot
  1  0.000  0.000  0.000  0.000  0.000  0.000  0.148  0.000  0.049  0.198
 
band   8 # energy   30.26737318 # occ.  0.00000000
 
ion      s     py     pz     px    dxy    dyz    dz2    dxz    dx2    tot
  1  0.000  0.006  0.006  0.000  0.082  0.000  0.000  0.082  0.000  0.176
 
band   9 # energy   30.26738009 # occ.  0.00000000
 
ion      s     py     pz     px    dxy    dyz    dz2    dxz    dx2    tot
  1  0.000  0.006  0.006  0.000  0.082  0.000  0.000  0.082  0.000  0.176
 
band  10 # energy   33.78375519 # occ.  0.00000000
 
ion      s     py     pz     px    dxy    dyz    dz2    dxz    dx2    tot
  1  0.011  0.000  0.000  0.270  0.000  0.000  0.089  0.000  0.266  0.636
 
band  11 # energy   35.61116016 # occ.  0.00000000
 
ion      s     py     pz     px    dxy    dyz    dz2    dxz    dx2    tot
  1  0.000  0.222  0.222  0.000  0.301  0.000  0.000  0.301  0.000  1.045
 
band  12 # energy   35.61116291 # occ.  0.00000000
 
ion      s     py     pz     px    dxy    dyz    dz2    dxz    dx2    tot
  1  0.000  0.222  0.222  0.000  0.301  0.000  0.000  0.301  0.000  1.045
 

 k-point    7 :    0.15000000 0.15000000 0.05000000     weight = 0.02400000

band   1 # energy    0.27984759 # occ.  1.00000000
 
ion      s     py     pz     px    dxy    dyz    dz2    dxz    dx2    tot
  1  0.458  0.040  0.085  0.040  0.006  0.051  0.014  0.051  0.000  0.744
 
band   2 # energy    2.70730530 # occ.  1.00000000
 
ion      s     py     pz     px    dxy    dyz    dz2    dxz    dx2    tot
  1  0.000  0.011  0.000  0.011  0.000  0.378  0.000  0.378  0.162  0.939
 
band   3 # energy    2.73841561 # occ.  1.00000000
 
ion      s     py     pz     px    dxy    dyz    dz2    dxz    dx2    tot
  1  0.007  0.000  0.020  0.000  0.582  0.153  0.031  0.153  0.000  0.947
 
band   4 # energy    4.43784397 # occ.  1.00000000
 
ion      s     py     pz     px    dxy    dyz    dz2    dxz    dx2    tot
  1  0.000  0.000  0.000  0.000  0.000  0.090  0.000  0.090  0.790  0.971
 
band   5 # energy    4.67911192 # occ.  1.00000000
 
ion      s     py     pz     px    dxy    dyz    dz2    dxz    dx2    tot
  1  0.002  0.000  0.000  0.000  0.005  0.027  0.917  0.027  0.000  0.978
 
band   6 # energy    5.34393752 # occ.  0.71461693
 
ion      s     py     pz     px    dxy    dyz    dz2    dxz    dx2    tot
  1  0.027  0.015  0.021  0.015  0.369  0.249  0.012  0.249  0.000  0.959
 
band   7 # energy   21.38373683 # occ.  0.00000000
 
ion      s     py     pz     px    dxy    dyz    dz2    dxz    dx2    tot
  1  0.000  0.132  0.000  0.132  0.000  0.163  0.000  0.163  0.158  0.747
 
band   8 # energy   22.26196194 # occ.  0.00000000
 
ion      s     py     pz     px    dxy    dyz    dz2    dxz    dx2    tot
  1  0.104  0.008  0.267  0.008  0.073  0.113  0.047  0.113  0.000  0.733
 
band   9 # energy   25.62915507 # occ.  0.00000000
 
ion      s     py     pz     px    dxy    dyz    dz2    dxz    dx2    tot
  1  0.132  0.220  0.002  0.220  0.185  0.002  0.036  0.002  0.000  0.798
 
band  10 # energy   32.59563635 # occ.  0.00000000
 
ion      s     py     pz     px    dxy    dyz    dz2    dxz    dx2    tot
  1  0.000  0.009  0.000  0.009  0.000  0.077  0.000  0.077  0.083  0.256
 
band  11 # energy   36.41241933 # occ.  0.00000000
 
ion      s     py     pz     px    dxy    dyz    dz2    dxz    dx2    tot
  1  0.018  0.023  0.078  0.023  0.344  0.159  0.000  0.159  0.000  0.804
 
band  12 # energy   37.92009693 # occ.  0.00000000
 
ion      s     py     pz     px    dxy    dyz    dz2    dxz    dx2    tot
  1  0.000  0.115  0.000  0.115  0.000  0.068  0.000  0.068  0.366  0.733
 

 k-point    8 :    0.25000000 0.15000000 0.05000000     weight = 0.04800000

band   1 # energy    1.28673726 # occ.  1.00000000
 
ion      s     py     pz     px    dxy    dyz    dz2    dxz    dx2    tot
  1  0.223  0.025  0.050  0.036  0.001  0.345  0.057  0.042  0.047  0.826
 
band   2 # energy    2.43105895 # occ.  1.00000000
 
ion      s     py     pz     px    dxy    dyz    dz2    dxz    dx2    tot
  1  0.000  0.014  0.003  0.006  0.280  0.031  0.003  0.518  0.083  0.939
 
band   3 # energy    2.96921334 # occ.  1.00000000
 
ion      s     py     pz     px    dxy    dyz    dz2    dxz    dx2    tot
  1  0.054  0.053  0.087  0.000  0.387  0.160  0.000  0.040  0.101  0.883
 
band   4 # energy    4.53484980 # occ.  1.00000000
 
ion      s     py     pz     px    dxy    dyz    dz2    dxz    dx2    tot
  1  0.001  0.001  0.000  0.001  0.003  0.191  0.010  0.069  0.700  0.976
 
band   5 # energy    4.77949277 # occ.  1.00051107
 
ion      s     py     pz     px    dxy    dyz    dz2    dxz    dx2    tot
  1  0.007  0.001  0.002  0.000  0.003  0.025  0.886  0.042  0.016  0.981
 
band   6 # energy    6.71060160 # occ. -0.06041159
 
ion      s     py     pz     px    dxy    dyz    dz2    dxz    dx2    tot
  1  0.071  0.045  0.069  0.019  0.290  0.164  0.024  0.239  0.000  0.922
 
band   7 # energy   17.31077746 # occ.  0.00000000
 
ion      s     py     pz     px    dxy    dyz    dz2    dxz    dx2    tot
  1  0.143  0.160  0.083  0.039  0.012  0.269  0.007  0.016  0.080  0.809
 
band   8 # energy   20.43505096 # occ.  0.00000000
 
ion      s     py     pz     px    dxy    dyz    dz2    dxz    dx2    tot
  1  0.104  0.035  0.146  0.127  0.061  0.000  0.004  0.215  0.042  0.735
 
band   9 # energy   23.87771223 # occ.  0.00000000
 
ion      s     py     pz     px    dxy    dyz    dz2    dxz    dx2    tot
  1  0.121  0.131  0.014  0.282  0.147  0.015  0.025  0.004  0.003  0.743
 
band  10 # energy   32.78518519 # occ.  0.00000000
 
ion      s     py     pz     px    dxy    dyz    dz2    dxz    dx2    tot
  1  0.006  0.003  0.005  0.018  0.110  0.012  0.001  0.230  0.120  0.505
 
band  11 # energy   37.19909073 # occ.  0.00000000
 
ion      s     py     pz     px    dxy    dyz    dz2    dxz    dx2    tot
  1  0.002  0.092  0.011  0.009  0.287  0.154  0.002  0.051  0.168  0.775
 
band  12 # energy   38.60663244 # occ.  0.00000000
 
ion      s     py     pz     px    dxy    dyz    dz2    dxz    dx2    tot
  1  0.069  0.003  0.019  0.137  0.002  0.022  0.195  0.015  0.200  0.663
 

 k-point    9 :    0.35000000 0.15000000 0.05000000     weight = 0.04800000

band   1 # energy    1.38502508 # occ.  1.00000000
 
ion      s     py     pz     px    dxy    dyz    dz2    dxz    dx2    tot
  1  0.099  0.000  0.006  0.034  0.006  0.515  0.062  0.009  0.147  0.879
 
band   2 # energy    2.30013941 # occ.  1.00000000
 
ion      s     py     pz     px    dxy    dyz    dz2    dxz    dx2    tot
  1  0.000  0.011  0.007  0.004  0.416  0.002  0.000  0.476  0.024  0.941
 
band   3 # energy    3.69380789 # occ.  1.00000000
 
ion      s     py     pz     px    dxy    dyz    dz2    dxz    dx2    tot
  1  0.014  0.097  0.112  0.000  0.279  0.006  0.106  0.169  0.093  0.875
 
band   4 # energy    4.64613168 # occ.  1.00000000
 
ion      s     py     pz     px    dxy    dyz    dz2    dxz    dx2    tot
  1  0.005  0.001  0.000  0.001  0.000  0.260  0.117  0.024  0.571  0.979
 
band   5 # energy    4.87570495 # occ.  1.01211007
 
ion      s     py     pz     px    dxy    dyz    dz2    dxz    dx2    tot
  1  0.003  0.009  0.010  0.000  0.075  0.002  0.670  0.102  0.108  0.978
 
band   6 # energy    8.49515293 # occ. -0.00106985
 
ion      s     py     pz     px    dxy    dyz    dz2    dxz    dx2    tot
  1  0.047  0.148  0.182  0.007  0.195  0.051  0.028  0.185  0.000  0.844
 
band   7 # energy   13.71420951 # occ.  0.00000000
 
ion      s     py     pz     px    dxy    dyz    dz2    dxz    dx2    tot
  1  0.323  0.073  0.021  0.042  0.007  0.315  0.009  0.007  0.063  0.860
 
band   8 # energy   19.61213567 # occ.  0.00000000
 
ion      s     py     pz     px    dxy    dyz    dz2    dxz    dx2    tot
  1  0.110  0.067  0.100  0.165  0.094  0.004  0.002  0.154  0.030  0.726
 
band   9 # energy   22.99165990 # occ.  0.00000000
 
ion      s     py     pz     px    dxy    dyz    dz2    dxz    dx2    tot
  1  0.114  0.085  0.048  0.305  0.085  0.032  0.009  0.032  0.007  0.717
 
band  10 # energy   32.64409186 # occ.  0.00000000
 
ion      s     py     pz     px    dxy    dyz    dz2    dxz    dx2    tot
  1  0.012  0.000  0.003  0.017  0.233  0.000  0.013  0.278  0.095  0.653
 
band  11 # energy   37.87711943 # occ.  0.00000000
 
ion      s     py     pz     px    dxy    dyz    dz2    dxz    dx2    tot
  1  0.042  0.042  0.000  0.101  0.120  0.004  0.050  0.027  0.461  0.848
 
band  12 # energy   38.88123667 # occ.  0.00000000
 
ion      s     py     pz     px    dxy    dyz    dz2    dxz    dx2    tot
  1  0.034  0.027  0.006  0.030  0.010  0.038  0.261  0.004  0.001  0.412
 

 k-point   10 :   -0.15000000 0.15000000 0.05000000     weight = 0.02400000

band   1 # energy   -1.68721268 # occ.  1.00000000
 
ion      s     py     pz     px    dxy    dyz    dz2    dxz    dx2    tot
  1  0.644  0.013  0.000  0.053  0.005  0.000  0.002  0.000  0.002  0.719
 
band   2 # energy    3.16325892 # occ.  1.00000000
 
ion      s     py     pz     px    dxy    dyz    dz2    dxz    dx2    tot
  1  0.000  0.000  0.001  0.000  0.000  0.371  0.000  0.597  0.000  0.969
 
band   3 # energy    3.30926378 # occ.  1.00000000
 
ion      s     py     pz     px    dxy    dyz    dz2    dxz    dx2    tot
  1  0.002  0.007  0.000  0.003  0.904  0.000  0.045  0.000  0.002  0.963
 
band   4 # energy    3.79621077 # occ.  1.00000000
 
ion      s     py     pz     px    dxy    dyz    dz2    dxz    dx2    tot
  1  0.000  0.000  0.005  0.000  0.000  0.601  0.000  0.368  0.000  0.974
 
band   5 # energy    4.28846500 # occ.  1.00000000
 
ion      s     py     pz     px    dxy    dyz    dz2    dxz    dx2    tot
  1  0.000  0.000  0.000  0.000  0.049  0.000  0.733  0.000  0.178  0.960
 
band   6 # energy    4.66811414 # occ.  1.00000000
 
ion      s     py     pz     px    dxy    dyz    dz2    dxz    dx2    tot
  1  0.002  0.000  0.000  0.000  0.003  0.000  0.179  0.000  0.789  0.974
 
band   7 # energy   25.94857601 # occ.  0.00000000
 
ion      s     py     pz     px    dxy    dyz    dz2    dxz    dx2    tot
  1  0.012  0.087  0.000  0.037  0.236  0.000  0.213  0.000  0.016  0.602
 
band   8 # energy   28.63334537 # occ.  0.00000000
 
ion      s     py     pz     px    dxy    dyz    dz2    dxz    dx2    tot
  1  0.014  0.000  0.000  0.114  0.076  0.000  0.019  0.000  0.147  0.370
 
band   9 # energy   29.33166975 # occ.  0.00000000
 
ion      s     py     pz     px    dxy    dyz    dz2    dxz    dx2    tot
  1  0.000  0.000  0.107  0.000  0.000  0.035  0.000  0.494  0.000  0.636
 
band  10 # energy   32.99423213 # occ.  0.00000000
 
ion      s     py     pz     px    dxy    dyz    dz2    dxz    dx2    tot
  1  0.005  0.178  0.000  0.132  0.193  0.000  0.070  0.000  0.025  0.604
 
band  11 # energy   33.19211966 # occ.  0.00000000
 
ion      s     py     pz     px    dxy    dyz    dz2    dxz    dx2    tot
  1  0.000  0.000  0.415  0.000  0.000  0.388  0.000  0.085  0.000  0.888
 
band  12 # energy   34.19596544 # occ.  0.00000000
 
ion      s     py     pz     px    dxy    dyz    dz2    dxz    dx2    tot
  1  0.065  0.219  0.000  0.125  0.063  0.000  0.079  0.000  0.001  0.552
 

 k-point   11 :    0.25000000 0.25000000 0.05000000     weight = 0.02400000

band   1 # energy    1.81902859 # occ.  1.00000000
 
ion      s     py     pz     px    dxy    dyz    dz2    dxz    dx2    tot
  1  0.083  0.019  0.009  0.019  0.108  0.299  0.061  0.299  0.000  0.897
 
band   2 # energy    2.35909828 # occ.  1.00000000
 
ion      s     py     pz     px    dxy    dyz    dz2    dxz    dx2    tot
  1  0.000  0.038  0.000  0.038  0.000  0.292  0.000  0.292  0.248  0.907
 
band   3 # energy    2.94722942 # occ.  1.00000000
 
ion      s     py     pz     px    dxy    dyz    dz2    dxz    dx2    tot
  1  0.030  0.019  0.121  0.019  0.605  0.000  0.092  0.000  0.000  0.885
 
band   4 # energy    4.63606149 # occ.  1.00000000
 
ion      s     py     pz     px    dxy    dyz    dz2    dxz    dx2    tot
  1  0.000  0.002  0.000  0.002  0.000  0.140  0.000  0.140  0.695  0.978
 
band   5 # energy    4.86204871 # occ.  1.00000000
 
ion      s     py     pz     px    dxy    dyz    dz2    dxz    dx2    tot
  1  0.008  0.001  0.005  0.001  0.066  0.054  0.792  0.054  0.000  0.982
 
band   6 # energy    8.85362747 # occ. -0.00055167
 
ion      s     py     pz     px    dxy    dyz    dz2    dxz    dx2    tot
  1  0.100  0.052  0.158  0.052  0.186  0.136  0.045  0.136  0.000  0.867
 
band   7 # energy   15.69179910 # occ.  0.00000000
 
ion      s     py     pz     px    dxy    dyz    dz2    dxz    dx2    tot
  1  0.000  0.197  0.000  0.197  0.000  0.159  0.000  0.159  0.099  0.811
 
band   8 # energy   16.69185180 # occ.  0.00000000
 
ion      s     py     pz     px    dxy    dyz    dz2    dxz    dx2    tot
  1  0.402  0.017  0.138  0.017  0.090  0.063  0.000  0.063  0.000  0.790
 
band   9 # energy   22.79240913 # occ.  0.00000000
 
ion      s     py     pz     px    dxy    dyz    dz2    dxz    dx2    tot
  1  0.116  0.170  0.059  0.170  0.129  0.043  0.009  0.043  0.000  0.738
 
band  10 # energy   34.15397530 # occ.  0.00000000
 
ion      s     py     pz     px    dxy    dyz    dz2    dxz    dx2    tot
  1  0.000  0.024  0.000  0.024  0.000  0.077  0.000  0.077  0.247  0.447
 
band  11 # energy   36.98328748 # occ.  0.00000000
 
ion      s     py     pz     px    dxy    dyz    dz2    dxz    dx2    tot
  1  0.022  0.027  0.000  0.027  0.241  0.064  0.155  0.064  0.000  0.600
 
band  12 # energy   42.87392039 # occ.  0.00000000
 
ion      s     py     pz     px    dxy    dyz    dz2    dxz    dx2    tot
  1  0.000  0.085  0.000  0.085  0.002  0.005  0.002  0.005  0.407  0.591
 

 k-point   12 :    0.35000000 0.25000000 0.05000000     weight = 0.02400000

band   1 # energy    1.86442121 # occ.  1.00000000
 
ion      s     py     pz     px    dxy    dyz    dz2    dxz    dx2    tot
  1  0.051  0.000  0.000  0.030  0.142  0.477  0.018  0.142  0.053  0.912
 
band   2 # energy    2.40189059 # occ.  1.00000000
 
ion      s     py     pz     px    dxy    dyz    dz2    dxz    dx2    tot
  1  0.000  0.021  0.021  0.042  0.272  0.108  0.043  0.272  0.129  0.910
 
band   3 # energy    3.01083925 # occ.  1.00000000
 
ion      s     py     pz     px    dxy    dyz    dz2    dxz    dx2    tot
  1  0.000  0.082  0.082  0.000  0.240  0.000  0.180  0.240  0.060  0.885
 
band   4 # energy    4.72725944 # occ.  1.00000000
 
ion      s     py     pz     px    dxy    dyz    dz2    dxz    dx2    tot
  1  0.002  0.001  0.001  0.004  0.027  0.222  0.174  0.027  0.523  0.980
 
band   5 # energy    4.86719419 # occ.  1.00040847
 
ion      s     py     pz     px    dxy    dyz    dz2    dxz    dx2    tot
  1  0.000  0.006  0.006  0.000  0.131  0.000  0.530  0.131  0.177  0.982
 
band   6 # energy   10.96085826 # occ.  0.00000000
 
ion      s     py     pz     px    dxy    dyz    dz2    dxz    dx2    tot
  1  0.000  0.218  0.218  0.000  0.164  0.000  0.039  0.164  0.013  0.817
 
band   7 # energy   13.16345499 # occ.  0.00000000
 
ion      s     py     pz     px    dxy    dyz    dz2    dxz    dx2    tot
  1  0.218  0.032  0.032  0.169  0.003  0.320  0.017  0.003  0.050  0.843
 
band   8 # energy   15.97065629 # occ.  0.00000000
 
ion      s     py     pz     px    dxy    dyz    dz2    dxz    dx2    tot
  1  0.354  0.042  0.042  0.108  0.115  0.001  0.004  0.115  0.013  0.794
 
band   9 # energy   22.44991034 # occ.  0.00000000
 
ion      s     py     pz     px    dxy    dyz    dz2    dxz    dx2    tot
  1  0.115  0.108  0.108  0.180  0.085  0.060  0.000  0.085  0.001  0.743
 
band  10 # energy   34.67634394 # occ.  0.00000000
 
ion      s     py     pz     px    dxy    dyz    dz2    dxz    dx2    tot
  1  0.005  0.001  0.001  0.042  0.090  0.015  0.062  0.090  0.187  0.496
 
band  11 # energy   36.98551881 # occ.  0.00000000
 
ion      s     py     pz     px    dxy    dyz    dz2    dxz    dx2    tot