<?xml version="1.0" encoding="ISO-8859-1"?>
<modeling>
 <generator>
  <i name="program" type="string">vasp </i>
  <i name="version" type="string">5.4.1  </i>
  <i name="subversion" type="string">24Jun15 (build Jul 19 2016 16:50:41) complex                          parallel </i>
  <i name="platform" type="string">IFC91_ompi </i>
  <i name="date" type="string">2019 10 17 </i>
  <i name="time" type="string">11:05:06 </i>
 </generator>
 <incar>
  <i type="string" name="SYSTEM"> Fe BCC</i>
  <i type="string" name="PREC">accurate</i>
  <i type="int" name="ISPIN">     2</i>
  <i name="EDIFF">      0.00000100</i>
  <i name="ENCUT">    300.00000000</i>
  <v name="MAGMOM">      4.00000000</v>
  <i type="int" name="ISMEAR">    -5</i>
  <i type="logical" name="LORBIT"> F  </i>
  <v type="int" name="KPOINT_BSE">    -1     0     0     0</v>
 </incar>
 <kpoints>
  <generation param="Monkhorst-Pack">
   <v type="int" name="divisions">      10       10       10 </v>
   <v name="usershift">      0.00000000       0.00000000       0.00000000 </v>
   <v name="genvec1">      0.10000000       0.00000000       0.00000000 </v>
   <v name="genvec2">      0.00000000       0.10000000       0.00000000 </v>
   <v name="genvec3">      0.00000000       0.00000000       0.10000000 </v>
   <v name="shift">      0.50000000       0.50000000       0.50000000 </v>
  </generation>
  <varray name="kpointlist" >
   <v>       0.05000000       0.05000000       0.05000000 </v>
   <v>       0.15000000       0.05000000       0.05000000 </v>
   <v>       0.25000000       0.05000000       0.05000000 </v>
   <v>       0.35000000       0.05000000       0.05000000 </v>
   <v>       0.45000000       0.05000000       0.05000000 </v>
   <v>      -0.05000000       0.05000000       0.05000000 </v>
   <v>       0.15000000       0.15000000       0.05000000 </v>
   <v>       0.25000000       0.15000000       0.05000000 </v>
   <v>       0.35000000       0.15000000       0.05000000 </v>
   <v>      -0.15000000       0.15000000       0.05000000 </v>
   <v>       0.25000000       0.25000000       0.05000000 </v>
   <v>       0.35000000       0.25000000       0.05000000 </v>
   <v>      -0.25000000       0.25000000       0.05000000 </v>
   <v>      -0.15000000       0.25000000       0.05000000 </v>
   <v>      -0.35000000       0.35000000       0.05000000 </v>
   <v>      -0.25000000       0.35000000       0.05000000 </v>
   <v>      -0.45000000       0.45000000       0.05000000 </v>
   <v>      -0.35000000       0.45000000       0.05000000 </v>
   <v>      -0.25000000       0.45000000       0.05000000 </v>
   <v>      -0.45000000      -0.45000000       0.05000000 </v>
   <v>      -0.35000000      -0.45000000       0.05000000 </v>
   <v>      -0.35000000      -0.35000000       0.05000000 </v>
   <v>       0.15000000       0.15000000       0.15000000 </v>
   <v>       0.25000000       0.15000000       0.15000000 </v>
   <v>       0.35000000       0.15000000       0.15000000 </v>
   <v>      -0.15000000       0.15000000       0.15000000 </v>
   <v>       0.25000000       0.25000000       0.15000000 </v>
   <v>      -0.25000000       0.25000000       0.15000000 </v>
   <v>      -0.35000000       0.35000000       0.15000000 </v>
   <v>      -0.25000000       0.35000000       0.15000000 </v>
   <v>      -0.45000000       0.45000000       0.15000000 </v>
   <v>      -0.35000000       0.45000000       0.15000000 </v>
   <v>      -0.45000000      -0.45000000       0.15000000 </v>
   <v>      -0.35000000      -0.45000000       0.15000000 </v>
   <v>       0.25000000       0.25000000       0.25000000 </v>
   <v>      -0.25000000       0.25000000       0.25000000 </v>
   <v>      -0.35000000       0.35000000       0.25000000 </v>
   <v>      -0.45000000       0.45000000       0.25000000 </v>
   <v>      -0.35000000       0.45000000       0.25000000 </v>
   <v>      -0.45000000      -0.45000000       0.25000000 </v>
   <v>      -0.35000000       0.35000000       0.35000000 </v>
   <v>      -0.45000000       0.45000000       0.35000000 </v>
   <v>      -0.45000000      -0.45000000       0.35000000 </v>
   <v>      -0.45000000       0.45000000       0.45000000 </v>
  </varray>
  <varray name="weights" >
   <v>       0.00800000 </v>
   <v>       0.02400000 </v>
   <v>       0.02400000 </v>
   <v>       0.02400000 </v>
   <v>       0.01200000 </v>
   <v>       0.00600000 </v>
   <v>       0.02400000 </v>
   <v>       0.04800000 </v>
   <v>       0.04800000 </v>
   <v>       0.02400000 </v>
   <v>       0.02400000 </v>
   <v>       0.02400000 </v>
   <v>       0.02400000 </v>
   <v>       0.02400000 </v>
   <v>       0.02400000 </v>
   <v>       0.04800000 </v>
   <v>       0.02400000 </v>
   <v>       0.04800000 </v>
   <v>       0.02400000 </v>
   <v>       0.02400000 </v>
   <v>       0.04800000 </v>
   <v>       0.00800000 </v>
   <v>       0.00800000 </v>
   <v>       0.02400000 </v>
   <v>       0.01200000 </v>
   <v>       0.00600000 </v>
   <v>       0.02400000 </v>
   <v>       0.02400000 </v>
   <v>       0.02400000 </v>
   <v>       0.02400000 </v>
   <v>       0.02400000 </v>
   <v>       0.04800000 </v>
   <v>       0.02400000 </v>
   <v>       0.02400000 </v>
   <v>       0.00200000 </v>
   <v>       0.00600000 </v>
   <v>       0.02400000 </v>
   <v>       0.02400000 </v>
   <v>       0.02400000 </v>
   <v>       0.02400000 </v>
   <v>       0.00600000 </v>
   <v>       0.02400000 </v>
   <v>       0.00800000 </v>
   <v>       0.00600000 </v>
  </varray>
  <varray name="tetrahedronlist"  type="int" >
   <v type="int" >        4        1        2        2        7 </v>
   <v type="int" >        8        2        2        7        7 </v>
   <v type="int" >        4        2        7        7       23 </v>
   <v type="int" >        4        2        3        7        8 </v>
   <v type="int" >        4        2        7        7        8 </v>
   <v type="int" >       12        7        7        8       23 </v>
   <v type="int" >        8        3        7        8        8 </v>
   <v type="int" >        8        7        8        8       24 </v>
   <v type="int" >        8        7        8       23       24 </v>
   <v type="int" >        4        3        4        8        9 </v>
   <v type="int" >        4        3        8        8        9 </v>
   <v type="int" >       12        8        8        9       24 </v>
   <v type="int" >        8        4        8        9        9 </v>
   <v type="int" >        4        8        9        9       25 </v>
   <v type="int" >        4        8        9       24       25 </v>
   <v type="int" >        4        4        5        9        9 </v>
   <v type="int" >        4        4        9        9        9 </v>
   <v type="int" >        8        9        9        9       25 </v>
   <v type="int" >        8        5        9        9        9 </v>
   <v type="int" >        4        9        9        9       24 </v>
   <v type="int" >        4        9        9       24       25 </v>
   <v type="int" >        4        4        5        8        9 </v>
   <v type="int" >        4        5        8        9        9 </v>
   <v type="int" >        8        8        9        9       24 </v>
   <v type="int" >        8        4        8        8        9 </v>
   <v type="int" >        4        8        8        9       23 </v>
   <v type="int" >        4        8        9       23       24 </v>
   <v type="int" >        4        3        4        7        8 </v>
   <v type="int" >        4        4        7        8        8 </v>
   <v type="int" >       16        7        8        8       23 </v>
   <v type="int" >        8        3        7        7        8 </v>
   <v type="int" >        4        7        7        7        8 </v>
   <v type="int" >        4        2        2        3        7 </v>
   <v type="int" >        8        2        3        7        7 </v>
   <v type="int" >        4        2        7        7        7 </v>
   <v type="int" >        4        2        2        2        7 </v>
   <v type="int" >        8        2        2        7       14 </v>
   <v type="int" >        4        2        7        7       14 </v>
   <v type="int" >       16        1        2        2       10 </v>
   <v type="int" >        4        2        2        2       10 </v>
   <v type="int" >       12        2        2       10       14 </v>
   <v type="int" >       16        1        2       10       10 </v>
   <v type="int" >        4        2       10       10       26 </v>
   <v type="int" >        4        2       10       14       26 </v>
   <v type="int" >       20        1        6       10       10 </v>
   <v type="int" >        4        1       10       10       10 </v>
   <v type="int" >        4       10       10       10       26 </v>
   <v type="int" >        8        6       10       10       10 </v>
   <v type="int" >        4       10       10       10       14 </v>
   <v type="int" >        4       10       10       14       26 </v>
   <v type="int" >        8        1        2        6       10 </v>
   <v type="int" >        8        2        6       10       10 </v>
   <v type="int" >        8        2       10       10       14 </v>
   <v type="int" >        4        2        2        7       10 </v>
   <v type="int" >        4        2        7       10       14 </v>
   <v type="int" >        4        7        8       11       23 </v>
   <v type="int" >       12        8       11       23       24 </v>
   <v type="int" >        4       11       23       24       27 </v>
   <v type="int" >        4        8        9       12       24 </v>
   <v type="int" >        4        8       11       12       24 </v>
   <v type="int" >        8       11       12       24       27 </v>
   <v type="int" >       16        9       12       24       25 </v>
   <v type="int" >       16       12       24       25       27 </v>
   <v type="int" >        8       12       24       27       27 </v>
   <v type="int" >        8        9        9       11       25 </v>
   <v type="int" >       12        9       11       12       25 </v>
   <v type="int" >       16       11       12       25       27 </v>
   <v type="int" >       12        9       11       24       25 </v>
   <v type="int" >        4       11       24       24       25 </v>
   <v type="int" >       16       11       24       25       27 </v>
   <v type="int" >       16        8        9       11       24 </v>
   <v type="int" >        8        8       11       24       24 </v>
   <v type="int" >       16        8        8       23       24 </v>
   <v type="int" >        4        8        8       24       24 </v>
   <v type="int" >       12        3        7        8       23 </v>
   <v type="int" >        8        3        8        8       23 </v>
   <v type="int" >        8        3        7        7       23 </v>
   <v type="int" >        4        3        7       16       23 </v>
   <v type="int" >        4        3        8       16       23 </v>
   <v type="int" >        4        2        7        7       13 </v>
   <v type="int" >        4        3        7        7       13 </v>
   <v type="int" >        8        3        7       13       16 </v>
   <v type="int" >       12        2        7       13       14 </v>
   <v type="int" >        4        7       13       14       28 </v>
   <v type="int" >        4        7       13       16       28 </v>
   <v type="int" >        4        2       10       14       14 </v>
   <v type="int" >        4        2       13       14       14 </v>
   <v type="int" >        4       13       14       14       28 </v>
   <v type="int" >        8       10       14       14       26 </v>
   <v type="int" >        8       14       14       26       28 </v>
   <v type="int" >        4       14       14       28       28 </v>
   <v type="int" >        4       10       10       13       26 </v>
   <v type="int" >       12       10       13       14       26 </v>
   <v type="int" >       12       13       14       26       28 </v>
   <v type="int" >        4       13       14       16       26 </v>
   <v type="int" >        4       13       16       26       28 </v>
   <v type="int" >        4        2        3       10       14 </v>
   <v type="int" >        4        3       10       13       14 </v>
   <v type="int" >        8        3       13       14       16 </v>
   <v type="int" >       16        2        3        7       14 </v>
   <v type="int" >        4        3        7        8       14 </v>
   <v type="int" >        4        3        8       14       16 </v>
   <v type="int" >        8       11       12       12       27 </v>
   <v type="int" >        8       12       12       27       27 </v>
   <v type="int" >       12       12       25       27       27 </v>
   <v type="int" >       12        9       11       12       27 </v>
   <v type="int" >        4        9       12       12       27 </v>
   <v type="int" >        8        9       12       25       27 </v>
   <v type="int" >       12        9       11       24       27 </v>
   <v type="int" >        4        9        9       24       27 </v>
   <v type="int" >        8        9        9       25       27 </v>
   <v type="int" >        4        4        8       11       24 </v>
   <v type="int" >        4        4        9       11       24 </v>
   <v type="int" >        4        4        9        9       24 </v>
   <v type="int" >        4        4        8        8       24 </v>
   <v type="int" >        4        4        8       18       24 </v>
   <v type="int" >        4        4        9       18       24 </v>
   <v type="int" >        4        3        8        8       15 </v>
   <v type="int" >        4        4        8        8       15 </v>
   <v type="int" >        8        4        8       15       18 </v>
   <v type="int" >        8        3        8       15       16 </v>
   <v type="int" >        4        8       15       16       29 </v>
   <v type="int" >        4        8       15       18       29 </v>
   <v type="int" >        4        3       13       16       16 </v>
   <v type="int" >        4        3       15       16       16 </v>
   <v type="int" >        4       15       16       16       29 </v>
   <v type="int" >        8       13       16       16       28 </v>
   <v type="int" >       12       16       16       28       30 </v>
   <v type="int" >        4       16       16       29       30 </v>
   <v type="int" >        8       13       14       16       28 </v>
   <v type="int" >        8       14       16       28       28 </v>
   <v type="int" >        4       16       28       28       29 </v>
   <v type="int" >        8       16       28       29       30 </v>
   <v type="int" >        4       13       14       15       28 </v>
   <v type="int" >        4       14       15       16       28 </v>
   <v type="int" >        8       15       16       28       29 </v>
   <v type="int" >        8       13       15       16       28 </v>
   <v type="int" >        4       15       16       18       28 </v>
   <v type="int" >        4       15       18       28       29 </v>
   <v type="int" >        4        3        4       13       16 </v>
   <v type="int" >        4        4       13       15       16 </v>
   <v type="int" >        8        4       15       16       18 </v>
   <v type="int" >       12        3        4        8       16 </v>
   <v type="int" >        4        4        8        9       16 </v>
   <v type="int" >        4        4        9       16       18 </v>
   <v type="int" >        4        5        9       12       25 </v>
   <v type="int" >        8        5        9        9       25 </v>
   <v type="int" >        4        5        9       20       25 </v>
   <v type="int" >        4        4        9        9       17 </v>
   <v type="int" >        8        5        9        9       17 </v>
   <v type="int" >        8        5        9       17       20 </v>
   <v type="int" >        8        4        9       17       18 </v>
   <v type="int" >        4        9       17       18       31 </v>
   <v type="int" >        4        9       17       20       31 </v>
   <v type="int" >        4        4       15       18       18 </v>
   <v type="int" >        4        4       17       18       18 </v>
   <v type="int" >        4       17       18       18       31 </v>
   <v type="int" >        4       15       18       18       29 </v>
   <v type="int" >        4       18       18       29       32 </v>
   <v type="int" >        4       18       18       31       32 </v>
   <v type="int" >        4       15       16       19       29 </v>
   <v type="int" >        4       15       18       19       29 </v>
   <v type="int" >        8       18       19       29       32 </v>
   <v type="int" >       12       16       19       29       30 </v>
   <v type="int" >       12       19       29       30       32 </v>
   <v type="int" >        4       19       29       32       32 </v>
   <v type="int" >        4       16       16       18       30 </v>
   <v type="int" >       12       16       18       19       30 </v>
   <v type="int" >       12       18       19       30       32 </v>
   <v type="int" >        8       16       18       29       30 </v>
   <v type="int" >        4       18       29       30       31 </v>
   <v type="int" >        4       18       30       31       32 </v>
   <v type="int" >        4       15       16       17       29 </v>
   <v type="int" >        4       16       17       18       29 </v>
   <v type="int" >        8       17       18       29       31 </v>
   <v type="int" >        8       15       17       18       29 </v>
   <v type="int" >        4       17       18       20       29 </v>
   <v type="int" >        4       17       20       29       31 </v>
   <v type="int" >        4        4        5       15       18 </v>
   <v type="int" >        4        5       15       17       18 </v>
   <v type="int" >       12        5       17       18       20 </v>
   <v type="int" >       12        4        5        9       18 </v>
   <v type="int" >        8        5        9        9       18 </v>
   <v type="int" >       12        5        9       18       20 </v>
   <v type="int" >        4        5       17       20       20 </v>
   <v type="int" >        4       17       20       20       31 </v>
   <v type="int" >        4       20       20       31       33 </v>
   <v type="int" >        4       17       18       21       31 </v>
   <v type="int" >        4       17       20       21       31 </v>
   <v type="int" >        8       20       21       31       33 </v>
   <v type="int" >        8       18       21       31       32 </v>
   <v type="int" >        4       21       31       32       34 </v>
   <v type="int" >        4       21       31       33       34 </v>
   <v type="int" >        8       18       19       21       32 </v>
   <v type="int" >        4       18       21       21       32 </v>
   <v type="int" >       12       21       21       32       34 </v>
   <v type="int" >        8       19       21       32       32 </v>
   <v type="int" >        4       21       32       32       33 </v>
   <v type="int" >       16       21       32       33       34 </v>
   <v type="int" >        4       18       19       20       32 </v>
   <v type="int" >        4       19       20       21       32 </v>
   <v type="int" >       12       20       21       32       33 </v>
   <v type="int" >        8       18       20       31       32 </v>
   <v type="int" >        4       20       31       31       32 </v>
   <v type="int" >       12       20       31       32       33 </v>
   <v type="int" >        4       17       17       18       31 </v>
   <v type="int" >        8       17       18       20       31 </v>
   <v type="int" >        8       17       20       31       31 </v>
   <v type="int" >        8       17       17       20       31 </v>
   <v type="int" >        4       17       18       31       31 </v>
   <v type="int" >       16        4        5       17       20 </v>
   <v type="int" >        8        4       17       17       20 </v>
   <v type="int" >        8        4       17       18       20 </v>
   <v type="int" >       16        4        5        9       20 </v>
   <v type="int" >        4        4        8        9       20 </v>
   <v type="int" >        4        4        8       18       20 </v>
   <v type="int" >        4       20       21       22       33 </v>
   <v type="int" >       12       21       22       33       34 </v>
   <v type="int" >        8       22       33       34       34 </v>
   <v type="int" >        4       21       21       21       34 </v>
   <v type="int" >       16       21       21       22       34 </v>
   <v type="int" >       12       21       22       34       34 </v>
   <v type="int" >        8       21       21       33       34 </v>
   <v type="int" >        4       21       32       34       34 </v>
   <v type="int" >       12       18       20       21       33 </v>
   <v type="int" >        4       18       21       21       33 </v>
   <v type="int" >        8       18       21       32       33 </v>
   <v type="int" >       12       18       20       31       33 </v>
   <v type="int" >        4       18       29       31       33 </v>
   <v type="int" >        4       18       29       32       33 </v>
   <v type="int" >        4       15       17       20       31 </v>
   <v type="int" >        4       15       18       20       31 </v>
   <v type="int" >        8       15       18       29       31 </v>
   <v type="int" >        8       15       17       18       31 </v>
   <v type="int" >        4       15       16       18       31 </v>
   <v type="int" >        4       15       16       29       31 </v>
   <v type="int" >        4        3        4       17       18 </v>
   <v type="int" >        4        3       15       17       18 </v>
   <v type="int" >        8        3       15       16       18 </v>
   <v type="int" >       12        3        4        8       18 </v>
   <v type="int" >        4        3        7        8       18 </v>
   <v type="int" >        4        3        7       16       18 </v>
   <v type="int" >        4       19       21       22       34 </v>
   <v type="int" >        8       19       21       32       34 </v>
   <v type="int" >        4       19       30       32       34 </v>
   <v type="int" >        4       16       18       21       32 </v>
   <v type="int" >        4       16       19       21       32 </v>
   <v type="int" >        8       16       19       30       32 </v>
   <v type="int" >        8       16       18       29       32 </v>
   <v type="int" >        4       16       28       29       32 </v>
   <v type="int" >        4       16       28       30       32 </v>
   <v type="int" >        4       13       15       18       29 </v>
   <v type="int" >        4       13       16       18       29 </v>
   <v type="int" >        8       13       16       28       29 </v>
   <v type="int" >        8       13       15       16       29 </v>
   <v type="int" >        4       13       14       16       29 </v>
   <v type="int" >        4       13       14       28       29 </v>
   <v type="int" >        4        2        3       15       16 </v>
   <v type="int" >        4        2       13       15       16 </v>
   <v type="int" >        8        2       13       14       16 </v>
   <v type="int" >       12        2        3        7       16 </v>
   <v type="int" >        4        2        2        7       16 </v>
   <v type="int" >        4        2        2       14       16 </v>
   <v type="int" >        4       14       16       19       30 </v>
   <v type="int" >        8       14       16       28       30 </v>
   <v type="int" >        4       14       26       28       30 </v>
   <v type="int" >        4       10       13       16       28 </v>
   <v type="int" >        4       10       14       16       28 </v>
   <v type="int" >        8       10       14       26       28 </v>
   <v type="int" >        8       10       13       14       28 </v>
   <v type="int" >        4       10       10       14       28 </v>
   <v type="int" >        4       10       10       26       28 </v>
   <v type="int" >        4        1        2       13       14 </v>
   <v type="int" >        4        1       10       13       14 </v>
   <v type="int" >        8        1       10       10       14 </v>
   <v type="int" >        8        1        2        2       14 </v>
   <v type="int" >       12        1        2       10       14 </v>
   <v type="int" >        4        6       10       14       26 </v>
   <v type="int" >        4        6       10       10       26 </v>
   <v type="int" >        4        1        6       10       26 </v>
   <v type="int" >        4        6        6       10       10 </v>
   <v type="int" >       12        1        6        6       10 </v>
   <v type="int" >        6        1        1        6        6 </v>
   <v type="int" >        8        1        1        6       10 </v>
   <v type="int" >        4        1        1        2       10 </v>
   <v type="int" >        4        2        3        7       23 </v>
   <v type="int" >        4        3        8       23       24 </v>
   <v type="int" >       12        8       23       24       24 </v>
   <v type="int" >        8        8        8       11       24 </v>
   <v type="int" >        4        8       11       24       27 </v>
   <v type="int" >        4        8       24       24       27 </v>
   <v type="int" >        4        8        9       11       25 </v>
   <v type="int" >        4        8       11       24       25 </v>
   <v type="int" >        8       11       25       27       27 </v>
   <v type="int" >        8        9        9       12       24 </v>
   <v type="int" >        8        9       11       12       24 </v>
   <v type="int" >        4       11       12       24       24 </v>
   <v type="int" >        4       12       24       24       27 </v>
   <v type="int" >        4        8        9       11       23 </v>
   <v type="int" >        4        9       11       23       24 </v>
   <v type="int" >        8       11       23       24       24 </v>
   <v type="int" >        8        8        8       11       23 </v>
   <v type="int" >        4        7        7        8        8 </v>
   <v type="int" >       16        3        7        8       16 </v>
   <v type="int" >       12        7        8        8       16 </v>
   <v type="int" >        4        3        7        7       14 </v>
   <v type="int" >       12        3        7       14       16 </v>
   <v type="int" >       12        2        3       13       14 </v>
   <v type="int" >        4        3       13       14       28 </v>
   <v type="int" >        4        3       14       16       28 </v>
   <v type="int" >        4        2       10       13       26 </v>
   <v type="int" >        4        2       13       14       26 </v>
   <v type="int" >        4       13       26       28       28 </v>
   <v type="int" >        4       10       10       14       14 </v>
   <v type="int" >        4       10       13       14       14 </v>
   <v type="int" >        4       13       14       14       16 </v>
   <v type="int" >        4       14       14       16       28 </v>
   <v type="int" >        4        2        7       10       13 </v>
   <v type="int" >        4        7       10       13       14 </v>
   <v type="int" >       12        7       13       14       16 </v>
   <v type="int" >        8        2        3        7       13 </v>
   <v type="int" >        4        3        7        8       13 </v>
   <v type="int" >        4        7        8       13       16 </v>
   <v type="int" >        4       23       24       24       27 </v>
   <v type="int" >        8       24       24       27       27 </v>
   <v type="int" >        4       24       27       27       35 </v>
   <v type="int" >       12       24       25       27       27 </v>
   <v type="int" >        8       24       27       27       27 </v>
   <v type="int" >       16       27       27       27       35 </v>
   <v type="int" >        8       25       27       27       27 </v>
   <v type="int" >        8       27       27       27       27 </v>
   <v type="int" >        4       24       24       25       27 </v>
   <v type="int" >        4       24       24       24       27 </v>
   <v type="int" >        8       11       24       24       27 </v>
   <v type="int" >        4       11       24       27       27 </v>
   <v type="int" >        4        8       24       24       24 </v>
   <v type="int" >        4        8        8       19       24 </v>
   <v type="int" >        4        8       11       19       24 </v>
   <v type="int" >        4        7        8       16       23 </v>
   <v type="int" >        4        8        8       16       23 </v>
   <v type="int" >        8        8        8       16       19 </v>
   <v type="int" >        8        7        8       16       16 </v>
   <v type="int" >        4        8       16       16       30 </v>
   <v type="int" >        4        8       16       19       30 </v>
   <v type="int" >        4        7       14       16       28 </v>
   <v type="int" >        4        7       16       16       28 </v>
   <v type="int" >        4       16       28       28       36 </v>
   <v type="int" >        4       16       28       30       36 </v>
   <v type="int" >        4       14       26       28       28 </v>
   <v type="int" >        4       14       28       28       28 </v>
   <v type="int" >        4       28       28       28       36 </v>
   <v type="int" >        4       26       28       28       28 </v>
   <v type="int" >        4       28       28       28       30 </v>
   <v type="int" >        4       28       28       30       36 </v>
   <v type="int" >        4       14       16       26       28 </v>
   <v type="int" >        4       16       26       28       28 </v>
   <v type="int" >        8       16       28       28       30 </v>
   <v type="int" >       12       14       16       16       28 </v>
   <v type="int" >        4       16       16       19       28 </v>
   <v type="int" >        4       16       19       28       30 </v>
   <v type="int" >        4        7        8       14       16 </v>
   <v type="int" >        4        8       14       16       16 </v>
   <v type="int" >        8        8       16       16       19 </v>
   <v type="int" >        4        8        8       11       16 </v>
   <v type="int" >        4        8       11       16       19 </v>
   <v type="int" >       16       25       27       27       35 </v>
   <v type="int" >        4       12       25       27       35 </v>
   <v type="int" >        4        9       24       27       27 </v>
   <v type="int" >        8        9       25       27       27 </v>
   <v type="int" >        4        9       11       21       27 </v>
   <v type="int" >        4        9       12       21       27 </v>
   <v type="int" >        4        8       11       18       24 </v>
   <v type="int" >        4        9       11       18       24 </v>
   <v type="int" >        8        9       11       18       21 </v>
   <v type="int" >       12        8       11       18       19 </v>
   <v type="int" >        4       11       18       19       32 </v>
   <v type="int" >        4       11       18       21       32 </v>
   <v type="int" >        4        8       16       19       29 </v>
   <v type="int" >        4        8       18       19       29 </v>
   <v type="int" >        4       19       29       30       37 </v>
   <v type="int" >        4       19       29       32       37 </v>
   <v type="int" >        4       16       28       30       30 </v>
   <v type="int" >        4       16       29       30       30 </v>
   <v type="int" >        4       29       30       30       37 </v>
   <v type="int" >        8       28       30       30       36 </v>
   <v type="int" >        8       30       30       36       37 </v>
   <v type="int" >        4       30       30       37       37 </v>
   <v type="int" >        4       28       28       29       36 </v>
   <v type="int" >       12       28       29       30       36 </v>
   <v type="int" >       12       29       30       36       37 </v>
   <v type="int" >        4       29       30       32       36 </v>
   <v type="int" >        4       29       32       36       37 </v>
   <v type="int" >        4       16       18       28       30 </v>
   <v type="int" >        4       18       28       29       30 </v>
   <v type="int" >        8       18       29       30       32 </v>
   <v type="int" >        4       18       19       21       30 </v>
   <v type="int" >        4       18       21       30       32 </v>
   <v type="int" >        4        8        9       16       19 </v>
   <v type="int" >        4        9       16       18       19 </v>
   <v type="int" >        8        9       18       19       21 </v>
   <v type="int" >       12        8        9       11       19 </v>
   <v type="int" >        4        9       11       12       19 </v>
   <v type="int" >        4        9       12       19       21 </v>
   <v type="int" >        4        9       12       20       25 </v>
   <v type="int" >        8        9       12       20       21 </v>
   <v type="int" >        4       12       20       21       33 </v>
   <v type="int" >        4        9       18       21       31 </v>
   <v type="int" >        4        9       20       21       31 </v>
   <v type="int" >        4       21       31       32       38 </v>
   <v type="int" >        4       21       31       33       38 </v>
   <v type="int" >        4       18       29       32       32 </v>
   <v type="int" >        4       18       31       32       32 </v>
   <v type="int" >        4       31       32       32       38 </v>
   <v type="int" >        8       29       32       32       37 </v>
   <v type="int" >       12       32       32       37       39 </v>
   <v type="int" >        4       32       32       38       39 </v>
   <v type="int" >        8       29       30       32       37 </v>
   <v type="int" >        8       30       32       37       37 </v>
   <v type="int" >        4       32       37       37       38 </v>
   <v type="int" >        8       32       37       38       39 </v>
   <v type="int" >        4       29       30       31       37 </v>
   <v type="int" >        4       30       31       32       37 </v>
   <v type="int" >        8       31       32       37       38 </v>
   <v type="int" >        8       29       31       32       37 </v>
   <v type="int" >        4       31       32       33       37 </v>
   <v type="int" >        4       31       33       37       38 </v>
   <v type="int" >        4       18       20       29       32 </v>
   <v type="int" >        4       20       29       31       32 </v>
   <v type="int" >        8       18       20       21       32 </v>
   <v type="int" >        4       20       21       21       32 </v>
   <v type="int" >        4        9        9       18       21 </v>
   <v type="int" >        8        9       18       20       21 </v>
   <v type="int" >        8        9       20       21       21 </v>
   <v type="int" >        8        9        9       12       21 </v>
   <v type="int" >       16        9       11       12       21 </v>
   <v type="int" >        4        9       11       21       21 </v>
   <v type="int" >        4       20       31       33       33 </v>
   <v type="int" >        4       31       33       33       38 </v>
   <v type="int" >        4       33       33       38       40 </v>
   <v type="int" >        4       31       32       34       38 </v>
   <v type="int" >        4       31       33       34       38 </v>
   <v type="int" >        8       33       34       38       40 </v>
   <v type="int" >       12       32       34       38       39 </v>
   <v type="int" >       12       34       38       39       40 </v>
   <v type="int" >        4       34       38       40       40 </v>
   <v type="int" >        4       32       32       33       39 </v>
   <v type="int" >       12       32       33       34       39 </v>
   <v type="int" >       16       33       34       39       40 </v>
   <v type="int" >        8       32       33       38       39 </v>
   <v type="int" >        4       33       38       38       39 </v>
   <v type="int" >       12       33       38       39       40 </v>
   <v type="int" >        4       31       31       32       38 </v>
   <v type="int" >        8       31       32       33       38 </v>
   <v type="int" >        8       31       33       38       38 </v>
   <v type="int" >        8       31       31       33       38 </v>
   <v type="int" >        4       31       32       38       38 </v>
   <v type="int" >        4       18       31       31       33 </v>
   <v type="int" >        8       18       31       32       33 </v>
   <v type="int" >        4       18       19       21       33 </v>
   <v type="int" >        4       18       19       32       33 </v>
   <v type="int" >        4        8        9       20       21 </v>
   <v type="int" >        4        8       18       20       21 </v>
   <v type="int" >        8        8       18       19       21 </v>
   <v type="int" >        8        8        9       11       21 </v>
   <v type="int" >        4        8        8       11       21 </v>
   <v type="int" >        4        8        8       19       21 </v>
   <v type="int" >        8       33       34       34       40 </v>
   <v type="int" >        8       34       34       40       40 </v>
   <v type="int" >        8       34       39       40       40 </v>
   <v type="int" >       12       32       33       34       40 </v>
   <v type="int" >        4       32       34       34       40 </v>
   <v type="int" >        8       32       34       39       40 </v>
   <v type="int" >       12       32       33       38       40 </v>
   <v type="int" >        4       32       37       38       40 </v>
   <v type="int" >        4       32       37       39       40 </v>
   <v type="int" >        4       29       31       33       38 </v>
   <v type="int" >        4       29       32       33       38 </v>
   <v type="int" >        8       29       32       37       38 </v>
   <v type="int" >        8       29       31       32       38 </v>
   <v type="int" >        4       29       30       32       38 </v>
   <v type="int" >        4       29       30       37       38 </v>
   <v type="int" >        4       16       18       31       32 </v>
   <v type="int" >        4       16       29       31       32 </v>
   <v type="int" >        8       16       29       30       32 </v>
   <v type="int" >        8       16       18       19       32 </v>
   <v type="int" >        4       16       16       19       32 </v>
   <v type="int" >        4       16       16       30       32 </v>
   <v type="int" >        4        7        8       18       19 </v>
   <v type="int" >        4        7       16       18       19 </v>
   <v type="int" >        4        7       16       16       19 </v>
   <v type="int" >        4        7        8        8       19 </v>
   <v type="int" >        4        3        7        8       19 </v>
   <v type="int" >        4        3        7       16       19 </v>
   <v type="int" >        4       30       32       34       39 </v>
   <v type="int" >        8       30       32       37       39 </v>
   <v type="int" >        4       30       36       37       39 </v>
   <v type="int" >        4       28       29       32       37 </v>
   <v type="int" >        4       28       30       32       37 </v>
   <v type="int" >        8       28       30       36       37 </v>
   <v type="int" >        8       28       29       30       37 </v>
   <v type="int" >        4       28       28       30       37 </v>
   <v type="int" >        4       28       28       36       37 </v>
   <v type="int" >        4       14       16       29       30 </v>
   <v type="int" >        4       14       28       29       30 </v>
   <v type="int" >        4       14       28       28       30 </v>
   <v type="int" >        4       14       16       16       30 </v>
   <v type="int" >        4       13       14       16       30 </v>
   <v type="int" >        4       13       14       28       30 </v>
   <v type="int" >        4        2        7       16       16 </v>
   <v type="int" >        4        2       14       16       16 </v>
   <v type="int" >       12        2        3       13       16 </v>
   <v type="int" >        4        2       13       13       16 </v>
   <v type="int" >        4       26       28       30       36 </v>
   <v type="int" >        4       26       28       28       36 </v>
   <v type="int" >        4       14       26       28       36 </v>
   <v type="int" >        4       10       14       28       28 </v>
   <v type="int" >        4       10       26       28       28 </v>
   <v type="int" >        4        2       10       13       28 </v>
   <v type="int" >        4        2       10       14       28 </v>
   <v type="int" >       16        2       10       13       14 </v>
   <v type="int" >        4       10       10       13       14 </v>
   <v type="int" >       12        2       10       10       13 </v>
   <v type="int" >        8        2       10       13       13 </v>
   <v type="int" >        4       10       13       13       14 </v>
   <v type="int" >        4        1       10       14       26 </v>
   <v type="int" >        4        2       10       10       10 </v>
   <v type="int" >        8        2        2       10       13 </v>
   <v type="int" >        4        2        2        3       13 </v>
   <v type="int" >        4        3        4        8       24 </v>
   <v type="int" >        8        4        8        9       24 </v>
   <v type="int" >        4        4        9       24       25 </v>
   <v type="int" >        4        8        9       11       27 </v>
   <v type="int" >        4        8        9       24       27 </v>
   <v type="int" >        8        9       24       25       27 </v>
   <v type="int" >        4        9       12       27       27 </v>
   <v type="int" >        4       11       12       27       27 </v>
   <v type="int" >        8       12       27       27       27 </v>
   <v type="int" >        4       12       12       12       27 </v>
   <v type="int" >        4       12       12       25       27 </v>
   <v type="int" >        4       11       12       12       24 </v>
   <v type="int" >        4       12       12       24       27 </v>
   <v type="int" >        4        8        8        9       11 </v>
   <v type="int" >        8        4        8        9       18 </v>
   <v type="int" >        4        8        9        9       18 </v>
   <v type="int" >        4        4        8        8       16 </v>
   <v type="int" >        8        4        8       16       18 </v>
   <v type="int" >       12        3        4       15       16 </v>
   <v type="int" >        4        4       15       16       29 </v>
   <v type="int" >        4        4       16       18       29 </v>
   <v type="int" >        4        3       13       15       28 </v>
   <v type="int" >        4        3       15       16       28 </v>
   <v type="int" >        4       15       16       28       30 </v>
   <v type="int" >        4       15       28       29       30 </v>
   <v type="int" >        4       13       16       28       28 </v>
   <v type="int" >        8       16       16       28       29 </v>
   <v type="int" >        4       13       14       16       16 </v>
   <v type="int" >        4       13       15       16       16 </v>
   <v type="int" >        4       15       16       16       18 </v>
   <v type="int" >        4       16       16       18       29 </v>
   <v type="int" >        4        3        8       13       15 </v>
   <v type="int" >        4        8       13       15       16 </v>
   <v type="int" >        8        8       15       16       18 </v>
   <v type="int" >        8        3        4        8       15 </v>
   <v type="int" >        4        4        8        9       15 </v>
   <v type="int" >        4        8        9       15       18 </v>
   <v type="int" >        4       24       25       27       35 </v>
   <v type="int" >        4        9       11       21       25 </v>
   <v type="int" >        4       11       12       21       25 </v>
   <v type="int" >        4        8        9       19       24 </v>
   <v type="int" >        4        9       11       19       24 </v>
   <v type="int" >       12        9       11       19       21 </v>
   <v type="int" >        8        8        9       18       19 </v>
   <v type="int" >        4        9       18       19       32 </v>
   <v type="int" >        4        9       19       21       32 </v>
   <v type="int" >        4        8       16       18       30 </v>
   <v type="int" >        4        8       18       19       30 </v>
   <v type="int" >        4       18       29       30       37 </v>
   <v type="int" >        4       18       30       32       37 </v>
   <v type="int" >        4       16       28       29       36 </v>
   <v type="int" >        4       16       29       30       36 </v>
   <v type="int" >        4       29       36       37       37 </v>
   <v type="int" >        4       28       28       30       30 </v>
   <v type="int" >        4       28       29       30       30 </v>
   <v type="int" >        4       29       30       30       32 </v>
   <v type="int" >        4       30       30       32       37 </v>
   <v type="int" >        4       16       19       28       29 </v>
   <v type="int" >        4       19       28       29       30 </v>
   <v type="int" >        8       16       18       19       29 </v>
   <v type="int" >        4       18       19       21       29 </v>
   <v type="int" >        4       19       21       29       32 </v>
   <v type="int" >        4        8       11       16       18 </v>
   <v type="int" >        4       11       16       18       19 </v>
   <v type="int" >       12       11       18       19       21 </v>
   <v type="int" >        8        8        9       11       18 </v>
   <v type="int" >        4        9       11       12       18 </v>
   <v type="int" >        4       11       12       18       21 </v>
   <v type="int" >        4       12       27       27       35 </v>
   <v type="int" >        4       12       12       22       27 </v>
   <v type="int" >        4       11       12       21       27 </v>
   <v type="int" >        4       12       12       21       27 </v>
   <v type="int" >       12       12       12       21       22 </v>
   <v type="int" >        8       11       12       21       21 </v>
   <v type="int" >        8       12       21       21       34 </v>
   <v type="int" >        8       12       21       22       34 </v>
   <v type="int" >        4       11       19       21       32 </v>
   <v type="int" >        4       11       21       21       32 </v>
   <v type="int" >        4       21       32       32       39 </v>
   <v type="int" >        4       21       32       34       39 </v>
   <v type="int" >        4       19       30       32       37 </v>
   <v type="int" >        4       19       32       32       37 </v>
   <v type="int" >        4       32       37       37       41 </v>
   <v type="int" >        4       32       37       39       41 </v>
   <v type="int" >        4       30       36       37       37 </v>
   <v type="int" >        4       30       37       37       37 </v>
   <v type="int" >        4       37       37       37       41 </v>
   <v type="int" >        4       36       37       37       37 </v>
   <v type="int" >        4       37       37       37       39 </v>
   <v type="int" >        4       37       37       39       41 </v>
   <v type="int" >        4       30       32       36       37 </v>
   <v type="int" >        4       32       36       37       37 </v>
   <v type="int" >        8       32       37       37       39 </v>
   <v type="int" >       12       30       32       32       37 </v>
   <v type="int" >        4       32       32       34       37 </v>
   <v type="int" >        4       32       34       37       39 </v>
   <v type="int" >        4       19       21       30       32 </v>
   <v type="int" >        4       21       30       32       32 </v>
   <v type="int" >        8       21       32       32       34 </v>
   <v type="int" >        8       19       21       21       32 </v>
   <v type="int" >        4       21       21       22       32 </v>
   <v type="int" >        4       21       22       32       34 </v>
   <v type="int" >        4       11       12       19       21 </v>
   <v type="int" >        4       12       19       21       21 </v>
   <v type="int" >       16       12       21       21       22 </v>
   <v type="int" >        8       11       12       12       21 </v>
   <v type="int" >        4       12       12       12       21 </v>
   <v type="int" >        4       12       21       22       33 </v>
   <v type="int" >        4       22       33       34       40 </v>
   <v type="int" >        4       21       32       34       38 </v>
   <v type="int" >        4       21       33       34       38 </v>
   <v type="int" >        4       34       38       39       42 </v>
   <v type="int" >        4       34       38       40       42 </v>
   <v type="int" >        4       32       37       39       39 </v>
   <v type="int" >        4       32       38       39       39 </v>
   <v type="int" >        4       38       39       39       42 </v>
   <v type="int" >        8       37       39       39       41 </v>
   <v type="int" >        8       39       39       41       42 </v>
   <v type="int" >        4       39       39       42       42 </v>
   <v type="int" >        4       37       37       38       41 </v>
   <v type="int" >       12       37       38       39       41 </v>
   <v type="int" >       12       38       39       41       42 </v>
   <v type="int" >        4       38       39       40       41 </v>
   <v type="int" >        4       38       40       41       42 </v>
   <v type="int" >        4       32       33       37       39 </v>
   <v type="int" >        4       33       37       38       39 </v>
   <v type="int" >        4       33       34       34       39 </v>
   <v type="int" >        8       21       33       34       34 </v>
   <v type="int" >        4       21       21       34       34 </v>
   <v type="int" >       12       11       12       21       22 </v>
   <v type="int" >        8       11       21       21       22 </v>
   <v type="int" >        8       11       12       12       22 </v>
   <v type="int" >        4        9       11       12       22 </v>
   <v type="int" >        4        9       11       21       22 </v>
   <v type="int" >        4       33       38       40       40 </v>
   <v type="int" >        8       38       40       40       42 </v>
   <v type="int" >       16       40       40       42       43 </v>
   <v type="int" >       16       38       39       40       42 </v>
   <v type="int" >        8       39       40       42       42 </v>
   <v type="int" >        4       40       42       42       42 </v>
   <v type="int" >       16       40       42       42       43 </v>
   <v type="int" >        4       38       38       39       42 </v>
   <v type="int" >       12       38       40       42       42 </v>
   <v type="int" >        8       38       38       40       42 </v>
   <v type="int" >        4       38       39       42       42 </v>
   <v type="int" >        4       32       38       38       40 </v>
   <v type="int" >        8       32       38       39       40 </v>
   <v type="int" >        4       32       32       34       40 </v>
   <v type="int" >        4       32       32       39       40 </v>
   <v type="int" >        4       19       21       33       34 </v>
   <v type="int" >        4       19       32       33       34 </v>
   <v type="int" >        4       19       32       32       34 </v>
   <v type="int" >        4       19       21       21       34 </v>
   <v type="int" >        4       18       19       21       34 </v>
   <v type="int" >        4       18       19       32       34 </v>
   <v type="int" >        4        8       11       21       21 </v>
   <v type="int" >        4        8       19       21       21 </v>
   <v type="int" >        4        4        8        9       21 </v>
   <v type="int" >        4        4        8       18       21 </v>
   <v type="int" >        8       39       40       40       43 </v>
   <v type="int" >       12       39       40       42       43 </v>
   <v type="int" >        4       39       41       42       43 </v>
   <v type="int" >        4       37       38       40       42 </v>
   <v type="int" >        4       37       39       40       42 </v>
   <v type="int" >        8       37       39       41       42 </v>
   <v type="int" >        8       37       38       39       42 </v>
   <v type="int" >        4       37       37       39       42 </v>
   <v type="int" >        4       37       37       41       42 </v>
   <v type="int" >        4       30       32       38       39 </v>
   <v type="int" >        4       30       37       38       39 </v>
   <v type="int" >        4       30       37       37       39 </v>
   <v type="int" >        4       30       32       32       39 </v>
   <v type="int" >        4       29       30       32       39 </v>
   <v type="int" >        4       29       30       37       39 </v>
   <v type="int" >        4       16       19       32       32 </v>
   <v type="int" >        4       16       30       32       32 </v>
   <v type="int" >        4       15       16       18       32 </v>
   <v type="int" >        4       15       16       29       32 </v>
   <v type="int" >        4        3        8       18       19 </v>
   <v type="int" >        4        3       16       18       19 </v>
   <v type="int" >       12        3        4       15       18 </v>
   <v type="int" >        4        3       15       15       18 </v>
   <v type="int" >        4       36       37       39       41 </v>
   <v type="int" >        4       36       37       37       41 </v>
   <v type="int" >        4       30       36       37       41 </v>
   <v type="int" >        4       28       30       37       37 </v>
   <v type="int" >        4       28       36       37       37 </v>
   <v type="int" >        4       16       28       29       37 </v>
   <v type="int" >        4       16       28       30       37 </v>
   <v type="int" >        4       13       16       29       30 </v>
   <v type="int" >        4       13       28       29       30 </v>
   <v type="int" >        4        3       13       15       29 </v>
   <v type="int" >        4        3       13       16       29 </v>
   <v type="int" >        8        3       13       15       16 </v>
   <v type="int" >        4       13       13       15       16 </v>
   <v type="int" >        8        3       13       13       15 </v>
   <v type="int" >        8        3       13       15       15 </v>
   <v type="int" >        4       13       15       15       16 </v>
   <v type="int" >        4       14       28       30       36 </v>
   <v type="int" >        4        7       14       16       30 </v>
   <v type="int" >        4        2       13       16       28 </v>
   <v type="int" >        4        2       14       16       28 </v>
   <v type="int" >        8        2        7       14       16 </v>
   <v type="int" >        4        2        7        7       16 </v>
   <v type="int" >        4        3       13       13       14 </v>
   <v type="int" >        4        3       14       16       16 </v>
   <v type="int" >        4        2        2        7       13 </v>
   <v type="int" >        4        7       13       15       16 </v>
   <v type="int" >        4        3        7       13       15 </v>
   <v type="int" >        4        2        3        3       13 </v>
   <v type="int" >        4        3        3       13       15 </v>
   <v type="int" >        4        3        3        4       15 </v>
   <v type="int" >        4        4        5        9       25 </v>
   <v type="int" >        4        5        9       24       25 </v>
   <v type="int" >        4        9        9       12       27 </v>
   <v type="int" >        4        9       24       24       27 </v>
   <v type="int" >        4       11       12       12       25 </v>
   <v type="int" >        4        9        9        9       12 </v>
   <v type="int" >        4        9        9       12       25 </v>
   <v type="int" >        4        5        9        9       20 </v>
   <v type="int" >        4        9        9        9       20 </v>
   <v type="int" >       12        4        5       17       18 </v>
   <v type="int" >        4        5       17       18       31 </v>
   <v type="int" >        4        5       18       20       31 </v>
   <v type="int" >        4        4       15       17       29 </v>
   <v type="int" >        4        4       17       18       29 </v>
   <v type="int" >        4       17       18       29       32 </v>
   <v type="int" >        4       17       29       31       32 </v>
   <v type="int" >        4       15       16       18       30 </v>
   <v type="int" >        4       15       18       29       30 </v>
   <v type="int" >        4       18       30       32       32 </v>
   <v type="int" >        4       16       16       19       29 </v>
   <v type="int" >        4       18       19       29       31 </v>
   <v type="int" >        4       19       29       31       32 </v>
   <v type="int" >        4       15       16       18       18 </v>
   <v type="int" >        4       16       18       18       29 </v>
   <v type="int" >        4       18       18       29       31 </v>
   <v type="int" >        4       15       17       18       18 </v>
   <v type="int" >        4       17       18       18       20 </v>
   <v type="int" >        4       18       18       20       31 </v>
   <v type="int" >        4        4        9       15       17 </v>
   <v type="int" >        4        9       15       17       18 </v>
   <v type="int" >        8        9       17       18       20 </v>
   <v type="int" >        8        4        5        9       17 </v>
   <v type="int" >        4        9        9       17       20 </v>
   <v type="int" >        4        9       12       21       24 </v>
   <v type="int" >        4       11       12       21       24 </v>
   <v type="int" >        4        9        9       21       25 </v>
   <v type="int" >        4        9       12       21       25 </v>
   <v type="int" >       12        9       12       21       21 </v>
   <v type="int" >        8        9        9       20       21 </v>
   <v type="int" >        4        9       20       21       33 </v>
   <v type="int" >        4        9       21       21       33 </v>
   <v type="int" >        4        9       18       20       32 </v>
   <v type="int" >        4        9       20       21       32 </v>
   <v type="int" >        4       20       31       32       38 </v>
   <v type="int" >        4       20       32       33       38 </v>
   <v type="int" >        4       18       29       31       37 </v>
   <v type="int" >        4       18       31       32       37 </v>
   <v type="int" >        4       31       32       37       39 </v>
   <v type="int" >        4       31       37       38       39 </v>
   <v type="int" >        4       29       32       37       37 </v>
   <v type="int" >        8       32       32       37       38 </v>
   <v type="int" >        4       29       30       32       32 </v>
   <v type="int" >        4       29       31       32       32 </v>
   <v type="int" >        4       31       32       32       33 </v>
   <v type="int" >        4       32       32       33       38 </v>
   <v type="int" >        4       18       21       29       31 </v>
   <v type="int" >        4       21       29       31       32 </v>
   <v type="int" >        8       21       31       32       33 </v>
   <v type="int" >        8       18       20       21       31 </v>
   <v type="int" >        4       20       21       21       31 </v>
   <v type="int" >        4       21       21       31       33 </v>
   <v type="int" >        4        9       12       18       20 </v>
   <v type="int" >        4       12       18       20       21 </v>
   <v type="int" >        4       12       20       21       21 </v>
   <v type="int" >        4        9        9       12       20 </v>
   <v type="int" >        4        9       11       12       20 </v>
   <v type="int" >        4       11       12       20       21 </v>
   <v type="int" >        4       11       12       22       27 </v>
   <v type="int" >        4       11       21       22       34 </v>
   <v type="int" >        4       21       33       34       40 </v>
   <v type="int" >        4       21       34       34       40 </v>
   <v type="int" >        4       21       32       33       39 </v>
   <v type="int" >        4       21       33       34       39 </v>
   <v type="int" >        4       33       38       39       42 </v>
   <v type="int" >        4       33       39       40       42 </v>
   <v type="int" >        4       32       37       38       41 </v>
   <v type="int" >        4       32       38       39       41 </v>
   <v type="int" >        4       38       41       42       42 </v>
   <v type="int" >        4       37       37       39       39 </v>
   <v type="int" >        4       37       38       39       39 </v>
   <v type="int" >        4       38       39       39       40 </v>
   <v type="int" >        4       39       39       40       42 </v>
   <v type="int" >        4       32       34       37       38 </v>
   <v type="int" >        4       34       37       38       39 </v>
   <v type="int" >        8       32       33       34       38 </v>
   <v type="int" >        4       33       34       34       38 </v>
   <v type="int" >        4       34       34       38       40 </v>
   <v type="int" >        4       21       22       32       33 </v>
   <v type="int" >        4       22       32       33       34 </v>
   <v type="int" >        8       21       21       22       33 </v>
   <v type="int" >        4       12       12       21       21 </v>
   <v type="int" >        4       22       34       34       40 </v>
   <v type="int" >        4       34       40       40       43 </v>
   <v type="int" >        4       34       39       40       42 </v>
   <v type="int" >        4       34       40       40       42 </v>
   <v type="int" >        8       40       42       42       44 </v>
   <v type="int" >        8       40       42       43       44 </v>
   <v type="int" >        4       39       41       42       42 </v>
   <v type="int" >        4       39       42       42       42 </v>
   <v type="int" >        8       42       42       42       44 </v>
   <v type="int" >        4       41       42       42       42 </v>
   <v type="int" >        4       42       42       42       43 </v>
   <v type="int" >       20       42       42       43       44 </v>
   <v type="int" >        4       39       40       41       42 </v>
   <v type="int" >        4       40       41       42       42 </v>
   <v type="int" >       12       39       40       40       42 </v>
   <v type="int" >        4       40       40       40       42 </v>
   <v type="int" >        4       34       34       39       40 </v>
   <v type="int" >        4       34       40       40       40 </v>
   <v type="int" >        4       34       34       34       40 </v>
   <v type="int" >        4       33       34       40       40 </v>
   <v type="int" >        4       21       34       34       34 </v>
   <v type="int" >        4       20       21       21       34 </v>
   <v type="int" >        4       20       21       33       34 </v>
   <v type="int" >        4        9       12       21       22 </v>
   <v type="int" >        4        9       21       21       22 </v>
   <v type="int" >        4        5        9        9       21 </v>
   <v type="int" >        4        5        9       20       21 </v>
   <v type="int" >        4       40       42       43       43 </v>
   <v type="int" >        8       42       43       43       44 </v>
   <v type="int" >        6       43       43       44       44 </v>
   <v type="int" >       12       42       43       44       44 </v>
   <v type="int" >        4       42       42       44       44 </v>
   <v type="int" >        8       39       42       42       43 </v>
   <v type="int" >        4       38       39       40       43 </v>
   <v type="int" >        4       38       39       42       43 </v>
   <v type="int" >        4       32       34       40       40 </v>
   <v type="int" >        4       32       39       40       40 </v>
   <v type="int" >        4       31       32       33       40 </v>
   <v type="int" >        4       31       32       38       40 </v>
   <v type="int" >        4       18       21       33       34 </v>
   <v type="int" >        4       18       32       33       34 </v>
   <v type="int" >        4       17       18       20       33 </v>
   <v type="int" >        4       17       18       31       33 </v>
   <v type="int" >        4        4        9       20       21 </v>
   <v type="int" >        4        4       18       20       21 </v>
   <v type="int" >        4       41       42       43       44 </v>
   <v type="int" >        4       41       42       42       44 </v>
   <v type="int" >        4       39       41       42       44 </v>
   <v type="int" >        4       37       39       42       42 </v>
   <v type="int" >        4       37       41       42       42 </v>
   <v type="int" >        4       32       37       38       42 </v>
   <v type="int" >        4       32       37       39       42 </v>
   <v type="int" >        4       29       32       38       39 </v>
   <v type="int" >        4       29       37       38       39 </v>
   <v type="int" >        4       18       29       31       38 </v>
   <v type="int" >        4       18       29       32       38 </v>
   <v type="int" >        4       15       18       31       32 </v>
   <v type="int" >        4       15       29       31       32 </v>
   <v type="int" >        4        4       15       17       31 </v>
   <v type="int" >        4        4       15       18       31 </v>
   <v type="int" >        8        4       15       17       18 </v>
   <v type="int" >        4       15       15       17       18 </v>
   <v type="int" >        8        4       15       15       17 </v>
   <v type="int" >        8        4       15       17       17 </v>
   <v type="int" >        4       15       17       17       18 </v>
   <v type="int" >        4       30       37       39       41 </v>
   <v type="int" >        4       19       30       32       39 </v>
   <v type="int" >        4       16       29       32       37 </v>
   <v type="int" >        4       16       30       32       37 </v>
   <v type="int" >        4        8       16       18       32 </v>
   <v type="int" >        4        8       16       19       32 </v>
   <v type="int" >        4        3       15       18       29 </v>
   <v type="int" >        4        3       16       18       29 </v>
   <v type="int" >        8        3        8       16       18 </v>
   <v type="int" >        4        3        8        8       18 </v>
   <v type="int" >        4        4       15       15       16 </v>
   <v type="int" >        4        4       16       18       19 </v>
   <v type="int" >        4        4        8       16       19 </v>
   <v type="int" >        4        7       16       19       30 </v>
   <v type="int" >        8        7        8       16       19 </v>
   <v type="int" >        4        7        8       19       23 </v>
   <v type="int" >        4        7        7        8       16 </v>
   <v type="int" >        4        7        8        8        8 </v>
   <v type="int" >        4        3        8       16       16 </v>
   <v type="int" >        8        8       16       18       19 </v>
   <v type="int" >        4        8        8       16       18 </v>
   <v type="int" >        4        3        4        8       23 </v>
   <v type="int" >        4        7        8       15       16 </v>
   <v type="int" >        4        3        7        8       15 </v>
   <v type="int" >        4        8       15       17       18 </v>
   <v type="int" >        4        4        8       15       17 </v>
   <v type="int" >        4        3        4        4       15 </v>
   <v type="int" >        4        4        4       15       17 </v>
   <v type="int" >        4        4        4        5       17 </v>
   <v type="int" >        4        4        5        9       24 </v>
   <v type="int" >        4        4        8       23       24 </v>
   <v type="int" >        4        8        9       24       24 </v>
   <v type="int" >        4        8        8        8       24 </v>
   <v type="int" >        4        8        9        9       11 </v>
   <v type="int" >        4        8        8        9       18 </v>
   <v type="int" >        8        4        9        9       20 </v>
   <v type="int" >        8        4        9       18       20 </v>
   <v type="int" >        4        4       17       20       31 </v>
   <v type="int" >        4        4       18       20       31 </v>
   <v type="int" >        4        5       17       17       31 </v>
   <v type="int" >        4        5       17       20       31 </v>
   <v type="int" >        4       17       20       31       33 </v>
   <v type="int" >        4       17       31       31       33 </v>
   <v type="int" >        4       17       18       20       32 </v>
   <v type="int" >        4       17       20       31       32 </v>
   <v type="int" >        4       20       21       32       34 </v>
   <v type="int" >        4       20       32       33       34 </v>
   <v type="int" >        4       18       21       32       32 </v>
   <v type="int" >        4       21       21       32       33 </v>
   <v type="int" >        4       18       19       21       31 </v>
   <v type="int" >        4       19       21       31       32 </v>
   <v type="int" >        4       20       21       31       31 </v>
   <v type="int" >        4       21       31       31       33 </v>
   <v type="int" >        4       17       18       20       20 </v>
   <v type="int" >        4       18       20       20       31 </v>
   <v type="int" >        2       20       20       31       31 </v>
   <v type="int" >        2       17       17       20       20 </v>
   <v type="int" >        8        5        9       17       17 </v>
   <v type="int" >        4        9       17       17       20 </v>
   <v type="int" >        4        4        8        9       17 </v>
   <v type="int" >        4        8        9       17       18 </v>
   <v type="int" >        4        8       11       19       23 </v>
   <v type="int" >        4        8        9       21       24 </v>
   <v type="int" >        4        8       11       21       24 </v>
   <v type="int" >        8        8       11       19       21 </v>
   <v type="int" >        8        8        9       18       21 </v>
   <v type="int" >        4        8       18       21       32 </v>
   <v type="int" >        4        8       19       21       32 </v>
   <v type="int" >        4        9       18       20       33 </v>
   <v type="int" >        4        9       18       21       33 </v>
   <v type="int" >        4       18       31       33       38 </v>
   <v type="int" >        4       18       32       33       38 </v>
   <v type="int" >        4       20       31       31       38 </v>
   <v type="int" >        4       20       31       33       38 </v>
   <v type="int" >        4       31       33       38       40 </v>
   <v type="int" >        4       31       38       38       40 </v>
   <v type="int" >        4       31       32       33       39 </v>
   <v type="int" >        4       31       33       38       39 </v>
   <v type="int" >        4       33       39       40       40 </v>
   <v type="int" >        4       32       32       34       38 </v>
   <v type="int" >        4       33       34       38       38 </v>
   <v type="int" >        4       34       38       38       40 </v>
   <v type="int" >        4       31       32       33       33 </v>
   <v type="int" >        4       32       33       33       38 </v>
   <v type="int" >        2       33       33       38       38 </v>
   <v type="int" >        2       31       31       33       33 </v>
   <v type="int" >        4        9       11       18       20 </v>
   <v type="int" >        4       11       18       20       21 </v>
   <v type="int" >        4        8        8       11       18 </v>
   <v type="int" >        4       11       19       21       34 </v>
   <v type="int" >        4       19       32       34       39 </v>
   <v type="int" >        4       21       32       33       40 </v>
   <v type="int" >        4       21       32       34       40 </v>
   <v type="int" >        4       32       38       40       42 </v>
   <v type="int" >        4       32       39       40       42 </v>
   <v type="int" >        4       33       38       38       42 </v>
   <v type="int" >        4       33       38       40       42 </v>
   <v type="int" >        4       38       40       42       43 </v>
   <v type="int" >        4       38       42       42       43 </v>
   <v type="int" >        6       40       40       42       42 </v>
   <v type="int" >        4       38       39       40       40 </v>
   <v type="int" >        2       38       38       40       40 </v>
   <v type="int" >        4        9       19       21       21 </v>
   <v type="int" >        4        4        8        9       19 </v>
   <v type="int" >        4        4        9       18       19 </v>
   <v type="int" >        4       34       39       40       43 </v>
   <v type="int" >        4       39       42       43       44 </v>
   <v type="int" >        4       42       44       44       44 </v>
   <v type="int" >        6       42       42       43       43 </v>
   <v type="int" >        4        5        9       18       21 </v>
   <v type="int" >        4        5       18       20       21 </v>
   <v type="int" >        8        5       17       17       18 </v>
   <v type="int" >        4       43       44       44       44 </v>
   <v type="int" >        2       44       44       44       44 </v>
   <v type="int" >        4        5       17       17       20 </v>
   <v type="int" >        4       17       17       17       20 </v>
   <v type="int" >        8        5       17       17       17 </v>
   <v type="int" >        4        4        5        5       17 </v>
   <v type="int" >        4        5        5       17       17 </v>
   <v type="int" >        4        1        6       10       14 </v>
   <v type="int" >        4        1        2        7       14 </v>
   <v type="int" >        4        2       10       13       16 </v>
   <v type="int" >        4        2       10       14       16 </v>
   <v type="int" >        4        2        3        8       16 </v>
   <v type="int" >        4        2        7        8       16 </v>
   <v type="int" >        4        3       13       15       18 </v>
   <v type="int" >        4        3       13       16       18 </v>
   <v type="int" >        4        3        4        9       18 </v>
   <v type="int" >        4        3        8        9       18 </v>
   <v type="int" >        4        4       15       17       20 </v>
   <v type="int" >        4        4       15       18       20 </v>
   <v type="int" >        4        4        5        8       18 </v>
   <v type="int" >        4        5        8        9       18 </v>
   <v type="int" >        4        4       15       16       17 </v>
   <v type="int" >        4        4       16       17       18 </v>
   <v type="int" >        4        3        4        7       16 </v>
   <v type="int" >        4        4        7        8       16 </v>
   <v type="int" >        4        3       13       14       15 </v>
   <v type="int" >        4        3       14       15       16 </v>
   <v type="int" >        4        2        2        3       14 </v>
   <v type="int" >        6        2        2       10       10 </v>
   <v type="int" >        6        1        1       10       10 </v>
   <v type="int" >        4        6        6        6       10 </v>
   <v type="int" >        4        7       14       16       19 </v>
   <v type="int" >        4        7        8       11       19 </v>
   <v type="int" >        4        8       16       18       21 </v>
   <v type="int" >        4        8       16       19       21 </v>
   <v type="int" >        4        8        9       12       21 </v>
   <v type="int" >        4        8       11       12       21 </v>
   <v type="int" >        4        9       18       21       21 </v>
   <v type="int" >        4        9        9       11       21 </v>
   <v type="int" >        4        9       18       19       20 </v>
   <v type="int" >        4        9       19       20       21 </v>
   <v type="int" >        4        8        8        9       19 </v>
   <v type="int" >        4        8       16       16       18 </v>
   <v type="int" >        4        3        8        8       16 </v>
   <v type="int" >        4        7       13       16       16 </v>
   <v type="int" >        4        2        7       13       13 </v>
   <v type="int" >        4        3        7       13       13 </v>
   <v type="int" >        4        2        2       13       14 </v>
   <v type="int" >        2        2        2       13       13 </v>
   <v type="int" >        4        1       10       10       13 </v>
   <v type="int" >        4        1        2       10       13 </v>
   <v type="int" >        4        2        3       10       13 </v>
   <v type="int" >        4        3       10       13       13 </v>
   <v type="int" >        4       11       19       21       22 </v>
   <v type="int" >        4       12       21       21       21 </v>
   <v type="int" >        4        9       12       12       21 </v>
   <v type="int" >        4       11       18       21       21 </v>
   <v type="int" >        4        4        8       11       18 </v>
   <v type="int" >        4        4        9       11       18 </v>
   <v type="int" >        4        8       15       16       19 </v>
   <v type="int" >        4        8       15       18       19 </v>
   <v type="int" >        4        3        8       15       15 </v>
   <v type="int" >        4        4        8       15       15 </v>
   <v type="int" >        4        3        3       13       16 </v>
   <v type="int" >        4        3        3       15       16 </v>
   <v type="int" >        2        3        3       15       15 </v>
   <v type="int" >        2        3        3       13       13 </v>
   <v type="int" >        4        2       13       13       15 </v>
   <v type="int" >        4        2        3       13       15 </v>
   <v type="int" >        4        3        4       13       15 </v>
   <v type="int" >        4        4       13       15       15 </v>
[...]
       </set>
       <set comment="band 5">
        <r>  0.0000  0.0082  0.0000  0.0082  0.0000  0.4302  0.0000  0.4302  0.1075 </r>
       </set>
       <set comment="band 6">
        <r>  0.0000  0.2110  0.0000  0.2110  0.0000  0.0519  0.0000  0.0519  0.3333 </r>
       </set>
       <set comment="band 7">
        <r>  0.3257  0.0525  0.0153  0.0525  0.3171  0.0002  0.1222  0.0002  0.0000 </r>
       </set>
       <set comment="band 8">
        <r>  0.1129  0.0117  0.3736  0.0117  0.0003  0.0962  0.0891  0.0962  0.0000 </r>
       </set>
       <set comment="band 9">
        <r>  0.0335  0.0187  0.1862  0.0187  0.0131  0.0173  0.3060  0.0173  0.0000 </r>
       </set>
       <set comment="band 10">
        <r>  0.0000  0.0431  0.0000  0.0431  0.0000  0.0035  0.0000  0.0035  0.4744 </r>
       </set>
       <set comment="band 11">
        <r>  0.0041  0.1291  0.0740  0.1291  0.0070  0.1552  0.1537  0.1552  0.0000 </r>
       </set>
       <set comment="band 12">
        <r>  0.1092  0.1175  0.0123  0.1175  0.1041  0.2183  0.1036  0.2183  0.0000 </r>
       </set>
      </set>
      <set comment="kpoint 34">
       <set comment="band 1">
        <r>  0.0394  0.0111  0.0111  0.1213  0.0843  0.0011  0.1195  0.0843  0.3584 </r>
       </set>
       <set comment="band 2">
        <r>  0.0000  0.0459  0.0459  0.0000  0.0753  0.0000  0.4553  0.0753  0.1518 </r>
       </set>
       <set comment="band 3">
        <r>  0.0329  0.0127  0.0127  0.0067  0.2033  0.3666  0.0209  0.2033  0.0627 </r>
       </set>
       <set comment="band 4">
        <r>  0.0000  0.0126  0.0126  0.0000  0.3569  0.0000  0.1699  0.3569  0.0566 </r>
       </set>
       <set comment="band 5">
        <r>  0.0053  0.0017  0.0017  0.0163  0.1205  0.5173  0.0482  0.1205  0.1445 </r>
       </set>
       <set comment="band 6">
        <r>  0.0626  0.0411  0.0411  0.2759  0.0594  0.0695  0.0651  0.0594  0.1953 </r>
       </set>
       <set comment="band 7">
        <r>  0.0000  0.2157  0.2157  0.0000  0.1001  0.0000  0.1666  0.1001  0.0555 </r>
       </set>
       <set comment="band 8">
        <r>  0.4037  0.0806  0.0806  0.0043  0.0756  0.0806  0.0031  0.0756  0.0092 </r>
       </set>
       <set comment="band 9">
        <r>  0.0000  0.0530  0.0530  0.0000  0.0301  0.0000  0.3696  0.0301  0.1232 </r>
       </set>
       <set comment="band 10">
        <r>  0.0149  0.1181  0.1181  0.0015  0.0020  0.0035  0.0808  0.0020  0.2425 </r>
       </set>
       <set comment="band 11">
        <r>  0.0002  0.0861  0.0861  0.2015  0.0343  0.1201  0.0392  0.0343  0.1176 </r>
       </set>
       <set comment="band 12">
        <r>  0.2399  0.0147  0.0147  0.0955  0.2081  0.2262  0.0060  0.2080  0.0179 </r>
       </set>
      </set>
      <set comment="kpoint 35">
       <set comment="band 1">
        <r>  0.0000  0.0498  0.0498  0.0498  0.2454  0.2454  0.0000  0.2454  0.0000 </r>
       </set>
       <set comment="band 2">
        <r>  0.0000  0.0556  0.0074  0.0864  0.0363  0.4258  0.0000  0.2739  0.0000 </r>
       </set>
       <set comment="band 3">
        <r>  0.0000  0.0440  0.0922  0.0132  0.4544  0.0649  0.0000  0.2168  0.0000 </r>
       </set>
       <set comment="band 4">
        <r>  0.0000  0.0000  0.0000  0.0000  0.0000  0.0000  0.4071  0.0000  0.5795 </r>
       </set>
       <set comment="band 5">
        <r>  0.0000  0.0000  0.0000  0.0000  0.0000  0.0000  0.5795  0.0000  0.4071 </r>
       </set>
       <set comment="band 6">
        <r>  0.0000  0.1184  0.1184  0.1184  0.1505  0.1505  0.0000  0.1505  0.0000 </r>
       </set>
       <set comment="band 7">
        <r>  0.0000  0.0179  0.2188  0.1185  0.2782  0.1506  0.0000  0.0227  0.0000 </r>
       </set>
       <set comment="band 8">
        <r>  0.0000  0.2189  0.0180  0.1183  0.0229  0.1504  0.0000  0.2783  0.0000 </r>
       </set>
       <set comment="band 9">
        <r>  0.8073  0.0000  0.0000  0.0000  0.0000  0.0000  0.0000  0.0000  0.0000 </r>
       </set>
       <set comment="band 10">
        <r>  0.0000  0.0000  0.0000  0.0000  0.0000  0.0000  0.0000  0.0000  0.0000 </r>
       </set>
       <set comment="band 11">
        <r>  0.0000  0.0000  0.0000  0.0000  0.0000  0.0000  0.0000  0.0000  0.0000 </r>
       </set>
       <set comment="band 12">
        <r>  0.0000  0.0000  0.0000  0.0000  0.0000  0.0000  0.0000  0.0000  0.0000 </r>
       </set>
      </set>
      <set comment="kpoint 36">
       <set comment="band 1">
        <r>  0.3329  0.0000  0.0000  0.2370  0.0000  0.0000  0.0414  0.0000  0.1243 </r>
       </set>
       <set comment="band 2">
        <r>  0.0000  0.0000  0.0000  0.0000  0.0000  0.0000  0.6600  0.0000  0.2200 </r>
       </set>
       <set comment="band 3">
        <r>  0.0000  0.0189  0.0189  0.0000  0.4573  0.0000  0.0000  0.4573  0.0000 </r>
       </set>
       <set comment="band 4">
        <r>  0.0000  0.0189  0.0189  0.0000  0.4573  0.0000  0.0000  0.4573  0.0000 </r>
       </set>
       <set comment="band 5">
        <r>  0.0000  0.0000  0.0000  0.0000  0.0000  0.9735  0.0000  0.0000  0.0000 </r>
       </set>
       <set comment="band 6">
        <r>  0.0906  0.0000  0.0000  0.0414  0.0000  0.0000  0.2077  0.0000  0.6231 </r>
       </set>
       <set comment="band 7">
        <r>  0.0000  0.2373  0.2373  0.0000  0.2048  0.0000  0.0000  0.2048  0.0000 </r>
       </set>
       <set comment="band 8">
        <r>  0.0000  0.2373  0.2373  0.0000  0.2048  0.0000  0.0000  0.2048  0.0000 </r>
       </set>
       <set comment="band 9">
        <r>  0.0000  0.0000  0.0000  0.0000  0.0000  0.0000  0.5074  0.0000  0.1691 </r>
       </set>
       <set comment="band 10">
        <r>  0.2450  0.0000  0.0000  0.1819  0.0000  0.0000  0.0137  0.0000  0.0411 </r>
       </set>
       <set comment="band 11">
        <r>  0.0000  0.1326  0.1383  0.0000  0.0601  0.0000  0.0000  0.0627  0.0000 </r>
       </set>
       <set comment="band 12">
        <r>  0.0000  0.1383  0.1326  0.0000  0.0627  0.0000  0.0000  0.0601  0.0000 </r>
       </set>
      </set>
      <set comment="kpoint 37">
       <set comment="band 1">
        <r>  0.1645  0.0027  0.0000  0.2111  0.0329  0.0000  0.1301  0.0000  0.2326 </r>
       </set>
       <set comment="band 2">
        <r>  0.0002  0.0164  0.0000  0.0038  0.0548  0.0000  0.5195  0.0000  0.2686 </r>
       </set>
       <set comment="band 3">
        <r>  0.0000  0.0000  0.0359  0.0000  0.0000  0.2277  0.0000  0.6871  0.0000 </r>
       </set>
       <set comment="band 4">
        <r>  0.0038  0.0370  0.0000  0.0015  0.7859  0.0000  0.1178  0.0000  0.0016 </r>
       </set>
       <set comment="band 5">
        <r>  0.0000  0.0000  0.0064  0.0000  0.0000  0.7471  0.0000  0.2242  0.0000 </r>
       </set>
       <set comment="band 6">
        <r>  0.1507  0.0123  0.0000  0.1416  0.0212  0.0000  0.1278  0.0000  0.4621 </r>
       </set>
       <set comment="band 7">
        <r>  0.0839  0.3661  0.0000  0.0141  0.2429  0.0000  0.0735  0.0000  0.0558 </r>
       </set>
       <set comment="band 8">
        <r>  0.0000  0.0000  0.5489  0.0000  0.0000  0.0096  0.0000  0.2949  0.0000 </r>
       </set>
       <set comment="band 9">
        <r>  0.0807  0.0080  0.0000  0.0286  0.0198  0.0000  0.5060  0.0000  0.0427 </r>
       </set>
       <set comment="band 10">
        <r>  0.1318  0.1477  0.0000  0.0483  0.0501  0.0000  0.0068  0.0000  0.2265 </r>
       </set>
       <set comment="band 11">
        <r>  0.0561  0.0465  0.0000  0.2925  0.0000  0.0000  0.1490  0.0000  0.2923 </r>
       </set>
       <set comment="band 12">
        <r>  0.0000  0.0000  0.1167  0.0000  0.0000  0.5900  0.0000  0.1685  0.0000 </r>
       </set>
      </set>
      <set comment="kpoint 38">
       <set comment="band 1">
        <r>  0.0541  0.0007  0.0000  0.0869  0.1255  0.0000  0.4793  0.0000  0.0846 </r>
       </set>
       <set comment="band 2">
        <r>  0.0005  0.0631  0.0000  0.0490  0.0184  0.0000  0.1334  0.0000  0.5692 </r>
       </set>
       <set comment="band 3">
        <r>  0.0000  0.0000  0.0337  0.0000  0.0000  0.3954  0.0000  0.5203  0.0000 </r>
       </set>
       <set comment="band 4">
        <r>  0.0298  0.0191  0.0000  0.0021  0.6693  0.0000  0.2200  0.0000  0.0030 </r>
       </set>
       <set comment="band 5">
        <r>  0.0000  0.0000  0.0017  0.0000  0.0000  0.5711  0.0000  0.4157  0.0000 </r>
       </set>
       <set comment="band 6">
        <r>  0.0814  0.0954  0.0000  0.2862  0.0357  0.0000  0.0329  0.0000  0.3279 </r>
       </set>
       <set comment="band 7">
        <r>  0.2272  0.2634  0.0000  0.0002  0.2396  0.0000  0.0880  0.0000  0.0378 </r>
       </set>
       <set comment="band 8">
        <r>  0.0000  0.0000  0.6009  0.0000  0.0000  0.0571  0.0000  0.1626  0.0000 </r>
       </set>
       <set comment="band 9">
        <r>  0.1183  0.0041  0.0000  0.0202  0.0077  0.0000  0.5230  0.0000  0.0037 </r>
       </set>
       <set comment="band 10">
        <r>  0.0266  0.1289  0.0000  0.0009  0.0135  0.0000  0.0086  0.0000  0.4650 </r>
       </set>
       <set comment="band 11">
        <r>  0.1287  0.1341  0.0000  0.3021  0.0194  0.0000  0.1581  0.0000  0.0778 </r>
       </set>
       <set comment="band 12">
        <r>  0.0000  0.0000  0.1135  0.0000  0.0000  0.4576  0.0000  0.3102  0.0000 </r>
       </set>
      </set>
      <set comment="kpoint 39">
       <set comment="band 1">
        <r>  0.0492  0.0032  0.0032  0.1409  0.0152  0.0002  0.1462  0.0152  0.4385 </r>
       </set>
       <set comment="band 2">
        <r>  0.0000  0.0130  0.0130  0.0000  0.0216  0.0000  0.5875  0.0216  0.1958 </r>
       </set>
       <set comment="band 3">
        <r>  0.0157  0.0174  0.0174  0.0001  0.2975  0.2645  0.0081  0.2976  0.0242 </r>
       </set>
       <set comment="band 4">
        <r>  0.0000  0.0204  0.0204  0.0000  0.4269  0.0000  0.0470  0.4268  0.0157 </r>
       </set>
       <set comment="band 5">
        <r>  0.0067  0.0003  0.0003  0.0061  0.1167  0.6949  0.0096  0.1167  0.0288 </r>
       </set>
       <set comment="band 6">
        <r>  0.1444  0.0154  0.0154  0.2821  0.0282  0.0118  0.0852  0.0282  0.2556 </r>
       </set>
       <set comment="band 7">
        <r>  0.0000  0.2436  0.2435  0.0000  0.0900  0.0000  0.1312  0.0900  0.0437 </r>
       </set>
       <set comment="band 8">
        <r>  0.1810  0.1969  0.1969  0.0082  0.0889  0.0259  0.0046  0.0889  0.0137 </r>
       </set>
       <set comment="band 9">
        <r>  0.0000  0.0495  0.0495  0.0000  0.0217  0.0000  0.4620  0.0217  0.1540 </r>
       </set>
       <set comment="band 10">
        <r>  0.1339  0.0722  0.0722  0.0089  0.0051  0.0030  0.0849  0.0051  0.2546 </r>
       </set>
       <set comment="band 11">
        <r>  0.1612  0.0387  0.0387  0.3045  0.0016  0.0045  0.0627  0.0016  0.1882 </r>
       </set>
       <set comment="band 12">
        <r>  0.0758  0.0302  0.0302  0.0007  0.1462  0.4076  0.0000  0.1462  0.0000 </r>
       </set>
      </set>
      <set comment="kpoint 40">
       <set comment="band 1">
        <r>  0.0088  0.0170  0.0154  0.0170  0.0543  0.0007  0.7293  0.0007  0.0000 </r>
       </set>
       <set comment="band 2">
        <r>  0.0000  0.0479  0.0000  0.0479  0.0000  0.0068  0.0000  0.0068  0.7238 </r>
       </set>
       <set comment="band 3">
        <r>  0.0281  0.0063  0.0204  0.0063  0.2339  0.3148  0.0136  0.3148  0.0000 </r>
       </set>
       <set comment="band 4">
        <r>  0.0066  0.0089  0.0153  0.0089  0.5678  0.1359  0.0821  0.1359  0.0000 </r>
       </set>
       <set comment="band 5">
        <r>  0.0000  0.0069  0.0000  0.0069  0.0000  0.4677  0.0000  0.4677  0.0336 </r>
       </set>
       <set comment="band 6">
        <r>  0.0000  0.2592  0.0000  0.2592  0.0000  0.0251  0.0000  0.0251  0.2662 </r>
       </set>
       <set comment="band 7">
        <r>  0.2194  0.1320  0.0379  0.1320  0.1958  0.0005  0.1254  0.0005  0.0000 </r>
       </set>
       <set comment="band 8">
        <r>  0.1305  0.0000  0.4485  0.0000  0.0031  0.0802  0.0632  0.0802  0.0000 </r>
       </set>
       <set comment="band 9">
        <r>  0.0376  0.0001  0.0983  0.0001  0.0090  0.0075  0.5725  0.0075  0.0000 </r>
       </set>
       <set comment="band 10">
        <r>  0.0000  0.0494  0.0000  0.0494  0.0000  0.0030  0.0000  0.0030  0.5926 </r>
       </set>
       <set comment="band 11">
        <r>  0.2607  0.1991  0.0528  0.1991  0.0130  0.0000  0.0570  0.0000  0.0000 </r>
       </set>
       <set comment="band 12">
        <r>  0.0904  0.0044  0.0377  0.0044  0.1426  0.2780  0.0004  0.2780  0.0000 </r>
       </set>
      </set>
      <set comment="kpoint 41">
       <set comment="band 1">
        <r>  0.0533  0.0000  0.0000  0.1461  0.0000  0.0000  0.1519  0.0000  0.4557 </r>
       </set>
       <set comment="band 2">
        <r>  0.0000  0.0000  0.0000  0.0000  0.0000  0.0000  0.6401  0.0000  0.2134 </r>
       </set>
       <set comment="band 3">
        <r>  0.0000  0.0243  0.0243  0.0000  0.4526  0.0000  0.0000  0.4526  0.0000 </r>
       </set>
       <set comment="band 4">
        <r>  0.0000  0.0243  0.0243  0.0000  0.4526  0.0000  0.0000  0.4526  0.0000 </r>
       </set>
       <set comment="band 5">
        <r>  0.0000  0.0000  0.0000  0.0000  0.0000  0.9792  0.0000  0.0000  0.0000 </r>
       </set>
       <set comment="band 6">
        <r>  0.1926  0.0000  0.0000  0.2851  0.0000  0.0000  0.0953  0.0000  0.2860 </r>
       </set>
       <set comment="band 7">
        <r>  0.0000  0.3019  0.3019  0.0000  0.1066  0.0000  0.0000  0.1066  0.0000 </r>
       </set>
       <set comment="band 8">
        <r>  0.0000  0.3019  0.3019  0.0000  0.1066  0.0000  0.0000  0.1066  0.0000 </r>
       </set>
       <set comment="band 9">
        <r>  0.0000  0.0000  0.0000  0.0000  0.0000  0.0000  0.6090  0.0000  0.2030 </r>
       </set>
       <set comment="band 10">
        <r>  0.2803  0.0000  0.0000  0.0255  0.0000  0.0000  0.0845  0.0000  0.2534 </r>
       </set>
       <set comment="band 11">
        <r>  0.2213  0.0000  0.0000  0.3009  0.0000  0.0000  0.0739  0.0000  0.2217 </r>
       </set>
       <set comment="band 12">
        <r>  0.0000  0.0000  0.0000  0.0000  0.0000  0.7715  0.0000  0.0000  0.0000 </r>
       </set>
      </set>
      <set comment="kpoint 42">
       <set comment="band 1">
        <r>  0.0084  0.0019  0.0000  0.0651  0.0054  0.0000  0.2988  0.0000  0.4531 </r>
       </set>
       <set comment="band 2">
        <r>  0.0001  0.0147  0.0000  0.0014  0.0065  0.0000  0.5071  0.0000  0.3158 </r>
       </set>
       <set comment="band 3">
        <r>  0.0000  0.0000  0.0362  0.0000  0.0000  0.3219  0.0000  0.6016  0.0000 </r>
       </set>
       <set comment="band 4">
        <r>  0.0113  0.0316  0.0000  0.0078  0.8832  0.0000  0.0227  0.0000  0.0004 </r>
       </set>
       <set comment="band 5">
        <r>  0.0000  0.0000  0.0016  0.0000  0.0000  0.6518  0.0000  0.3336  0.0000 </r>
       </set>
       <set comment="band 6">
        <r>  0.1125  0.0296  0.0000  0.4319  0.0206  0.0000  0.0407  0.0000  0.1815 </r>
       </set>
       <set comment="band 7">
        <r>  0.0910  0.5033  0.0000  0.0008  0.1272  0.0000  0.0403  0.0000  0.0406 </r>
       </set>
       <set comment="band 8">
        <r>  0.0000  0.0000  0.6510  0.0000  0.0000  0.0232  0.0000  0.1087  0.0000 </r>
       </set>
       <set comment="band 9">
        <r>  0.0497  0.0077  0.0000  0.0004  0.0050  0.0000  0.7163  0.0000  0.0317 </r>
       </set>
       <set comment="band 10">
        <r>  0.0814  0.0660  0.0000  0.0052  0.0023  0.0000  0.0086  0.0000  0.5784 </r>
       </set>
       <set comment="band 11">
        <r>  0.4030  0.0493  0.0000  0.2284  0.0076  0.0000  0.0500  0.0000  0.0635 </r>
       </set>
       <set comment="band 12">
        <r>  0.0000  0.0000  0.0444  0.0000  0.0000  0.4101  0.0000  0.1863  0.0000 </r>
       </set>
      </set>
      <set comment="kpoint 43">
       <set comment="band 1">
        <r>  0.0000  0.0042  0.0166  0.0042  0.0021  0.0005  0.8135  0.0005  0.0000 </r>
       </set>
       <set comment="band 2">
        <r>  0.0000  0.0125  0.0000  0.0125  0.0000  0.0016  0.0000  0.0016  0.8135 </r>
       </set>
       <set comment="band 3">
        <r>  0.0090  0.0117  0.0117  0.0117  0.3044  0.3044  0.0000  0.3044  0.0000 </r>
       </set>
       <set comment="band 4">
        <r>  0.0000  0.0024  0.0094  0.0024  0.6395  0.1599  0.0073  0.1599  0.0000 </r>
       </set>
       <set comment="band 5">
        <r>  0.0000  0.0071  0.0000  0.0071  0.0000  0.4796  0.0000  0.4796  0.0073 </r>
       </set>
       <set comment="band 6">
        <r>  0.0000  0.1027  0.4110  0.1027  0.0252  0.0063  0.1363  0.0063  0.0000 </r>
       </set>
       <set comment="band 7">
        <r>  0.0000  0.3082  0.0000  0.3082  0.0000  0.0189  0.0000  0.0189  0.1363 </r>
       </set>
       <set comment="band 8">
        <r>  0.1861  0.1567  0.1567  0.1567  0.0390  0.0390  0.0000  0.0390  0.0000 </r>
       </set>
       <set comment="band 9">
        <r>  0.0000  0.0112  0.0448  0.0112  0.0024  0.0006  0.7394  0.0006  0.0000 </r>
       </set>
       <set comment="band 10">
        <r>  0.0000  0.0336  0.0000  0.0336  0.0000  0.0018  0.0000  0.0018  0.7394 </r>
       </set>
       <set comment="band 11">
        <r>  0.5723  0.0696  0.0696  0.0696  0.0020  0.0020  0.0000  0.0020  0.0000 </r>
       </set>
       <set comment="band 12">
        <r>  0.0142  0.0137  0.0137  0.0137  0.1645  0.1645  0.0000  0.1645  0.0000 </r>
       </set>
      </set>
      <set comment="kpoint 44">
       <set comment="band 1">
        <r>  0.0006  0.0000  0.0000  0.0168  0.0000  0.0000  0.2059  0.0000  0.6178 </r>
       </set>
       <set comment="band 2">
        <r>  0.0000  0.0000  0.0000  0.0000  0.0000  0.0000  0.6332  0.0000  0.2111 </r>
       </set>
       <set comment="band 3">
        <r>  0.0000  0.0073  0.0073  0.0000  0.4827  0.0000  0.0000  0.4827  0.0000 </r>
       </set>
       <set comment="band 4">
        <r>  0.0000  0.0073  0.0073  0.0000  0.4827  0.0000  0.0000  0.4827  0.0000 </r>
       </set>
       <set comment="band 5">
        <r>  0.0000  0.0000  0.0000  0.0000  0.0000  0.9872  0.0000  0.0000  0.0000 </r>
       </set>
       <set comment="band 6">
        <r>  0.0600  0.0000  0.0000  0.6112  0.0000  0.0000  0.0228  0.0000  0.0685 </r>
       </set>
       <set comment="band 7">
        <r>  0.0000  0.3532  0.3532  0.0000  0.0189  0.0000  0.0000  0.0189  0.0000 </r>
       </set>
       <set comment="band 8">
        <r>  0.0000  0.3532  0.3532  0.0000  0.0189  0.0000  0.0000  0.0189  0.0000 </r>
       </set>
       <set comment="band 9">
        <r>  0.0000  0.0000  0.0000  0.0000  0.0000  0.0000  0.6583  0.0000  0.2194 </r>
       </set>
       <set comment="band 10">
        <r>  0.0336  0.0000  0.0000  0.0240  0.0000  0.0000  0.1942  0.0000  0.5826 </r>
       </set>
       <set comment="band 11">
        <r>  0.6878  0.0000  0.0000  0.0825  0.0000  0.0000  0.0047  0.0000  0.0141 </r>
       </set>
       <set comment="band 12">
        <r>  0.0000  0.0000  0.0000  0.0000  0.0000  0.1749  0.0000  0.0000  0.0000 </r>
       </set>
      </set>
     </set>
    </set>
   </array>
  </projected>
 </calculation>
 <structure name="finalpos" >
  <crystal>
   <varray name="basis" >
    <v>      -1.42500000       1.42500000       1.42500000 </v>
    <v>       1.42500000      -1.42500000       1.42500000 </v>
    <v>       1.42500000       1.42500000      -1.42500000 </v>
   </varray>
   <i name="volume">     11.57456250 </i>
   <varray name="rec_basis" >
    <v>       0.00000000       0.35087719       0.35087719 </v>
    <v>       0.35087719       0.00000000       0.35087719 </v>
    <v>       0.35087719       0.35087719       0.00000000 </v>
   </varray>
  </crystal>
  <varray name="positions" >
   <v>       0.00000000       0.00000000       0.00000000 </v>
  </varray>
 </structure>
</modeling>
