Fe BCC                                  
   2.85000000000000     
    -0.500000    0.500000    0.500000
     0.500000   -0.500000    0.500000
     0.500000    0.500000   -0.500000
   Fe
     1
Direct
  0.000000  0.000000  0.000000
 
   28   28   28
  98.127      95.130      86.720      74.417      60.165      45.802      32.754      21.968      13.943      8.7392    
  5.9573      4.7955      4.2768      3.9575      3.8496      3.9575      4.2768      4.7955      5.9573      8.7392    
  13.943      21.968      32.754      45.802      60.165      74.417      86.720      95.130      95.130      94.143    
  87.574      76.647      63.181      49.051      35.800      24.512      15.814      9.9030      6.5274      5.0074    
  4.3912      4.0126      3.8366      3.8720      4.1177      4.5576      5.3650      7.4074      11.575      18.414    
  28.025      40.066      53.759      67.863      80.695      90.344      86.720      87.574      83.094      74.133    
  62.248      49.213      36.594      25.547      16.791      10.627      6.9318      5.1580      4.4466      4.0289    
  3.7978      3.7652      3.9322      4.2928      4.8570      6.1777      9.1669      14.499      22.446      32.839    
  45.087      58.166      70.617      80.695      74.417      76.647      74.133      67.362      57.559      46.279    
  35.001      24.877      16.667      10.734      7.0520      5.1990      4.4355      4.0014      3.7336      3.6457    
  3.7384      4.0119      4.4536      5.2292      7.1103      10.852      16.884      25.230      35.494      46.873    
  58.166      67.863      60.165      63.181      62.248      57.559      49.996      40.829      31.361      22.667    
  15.484      10.199      6.8448      5.1032      4.3584      3.9292      3.6458      3.5201      3.5513      3.7410    
  4.0900      4.5940      5.6251      7.9276      12.056      18.216      26.221      35.494      45.087      53.759    
  45.802      49.051      49.213      46.279      40.829      33.834      26.371      19.375      13.515      9.1567    
  6.3593      4.8820      4.2228      3.8173      3.5379      3.3936      3.3809      3.4996      3.7561      4.1507    
  4.7167      5.9315      8.4026      12.491      18.216      25.230      32.839      40.066      32.754      35.800    
  36.594      35.001      31.361      26.371      20.865      15.607      11.162      7.8442      5.7139      4.5822    
  4.0436      3.6749      3.4157      3.2703      3.2320      3.2978      3.4741      3.7709      4.1872      4.7917    
  6.0467      8.4026      12.056      16.884      22.446      28.025      21.968      24.512      25.547      24.877    
  22.667      19.375      15.607      11.946      8.8344      6.5210      5.0490      4.2629      3.8377      3.5147    
  3.2868      3.1535      3.1057      3.1377      3.2529      3.4630      3.7793      4.1991      4.7917      5.9315    
  7.9276      10.852      14.499      18.414      13.943      15.814      16.791      16.667      15.484      13.515    
  11.162      8.8344      6.8528      5.3940      4.4769      3.9671      3.6226      3.3500      3.1594      3.0466    
  3.0012      3.0155      3.0900      3.2335      3.4599      3.7793      4.1872      4.7167      5.6251      7.1103    
  9.1669      11.575      8.7392      9.9030      10.627      10.734      10.199      9.1567      7.8442      6.5210    
  5.3940      4.5715      4.0464      3.6996      3.4141      3.1933      3.0415      2.9527      2.9167      2.9254    
  2.9766      3.0756      3.2335      3.4630      3.7709      4.1507      4.5940      5.2292      6.1777      7.4074    
  5.9573      6.5274      6.9318      7.0520      6.8448      6.3593      5.7139      5.0490      4.4769      4.0464    
  3.7269      3.4526      3.2254      3.0543      2.9395      2.8747      2.8513      2.8618      2.9028      2.9766    
  3.0900      3.2529      3.4741      3.7561      4.0900      4.4536      4.8570      5.3650      4.7955      5.0074    
  5.1580      5.1990      5.1032      4.8820      4.5822      4.2629      3.9671      3.6996      3.4526      3.2383    
  3.0660      2.9397      2.8576      2.8149      2.8047      2.8215      2.8618      2.9254      3.0155      3.1377    
  3.2978      3.4996      3.7410      4.0119      4.2928      4.5576      4.2768      4.3912      4.4466      4.4355    
  4.3584      4.2228      4.0436      3.8377      3.6226      3.4141      3.2254      3.0660      2.9413      2.8526    
  2.7984      2.7750      2.7784      2.8047      2.8513      2.9167      3.0012      3.1057      3.2320      3.3809    
  3.5513      3.7384      3.9322      4.1177      3.9575      4.0126      4.0289      4.0014      3.9292      3.8173    
  3.6749      3.5147      3.3500      3.1933      3.0543      2.9397      2.8526      2.7940      2.7627      2.7571    
  2.7750      2.8149      2.8747      2.9527      3.0466      3.1535      3.2703      3.3936      3.5201      3.6457    
  3.7652      3.8720      3.8496      3.8366      3.7978      3.7336      3.6458      3.5379      3.4157      3.2868    
  3.1594      3.0415      2.9395      2.8576      2.7984      2.7627      2.7508      2.7627      2.7984      2.8576    
  2.9395      3.0415      3.1594      3.2868      3.4157      3.5379      3.6458      3.7336      3.7978      3.8366    
  3.9575      3.8720      3.7652      3.6457      3.5201      3.3936      3.2703      3.1535      3.0466      2.9527    
  2.8747      2.8149      2.7750      2.7571      2.7627      2.7940      2.8526      2.9397      3.0543      3.1933    
  3.3500      3.5147      3.6749      3.8173      3.9292      4.0014      4.0289      4.0126      4.2768      4.1177    
  3.9322      3.7384      3.5513      3.3809      3.2320      3.1057      3.0012      2.9167      2.8513      2.8047    
  2.7784      2.7750      2.7984      2.8526      2.9413      3.0660      3.2254      3.4141      3.6226      3.8377    
  4.0436      4.2228      4.3584      4.4355      4.4466      4.3912      4.7955      4.5576      4.2928      4.0119    
  3.7410      3.4996      3.2978      3.1377      3.0155      2.9254      2.8618      2.8215      2.8047      2.8149    
  2.8576      2.9397      3.0660      3.2383      3.4526      3.6996      3.9671      4.2629      4.5822      4.8820    
  5.1032      5.1990      5.1580      5.0074      5.9573      5.3650      4.8570      4.4536      4.0900      3.7561    
  3.4741      3.2529      3.0900      2.9766      2.9028      2.8618      2.8513      2.8747      2.9395      3.0543    
  3.2254      3.4526      3.7269      4.0464      4.4769      5.0490      5.7139      6.3593      6.8448      7.0520    
  6.9318      6.5274      8.7392      7.4074      6.1777      5.2292      4.5940      4.1507      3.7709      3.4630    
  3.2335      3.0756      2.9766      2.9254      2.9167      2.9527      3.0415      3.1933      3.4141      3.6996    
  4.0464      4.5715      5.3940      6.5210      7.8442      9.1567      10.199      10.734      10.627      9.9030    
  13.943      11.575      9.1669      7.1103      5.6251      4.7167      4.1872      3.7793      3.4599      3.2335    
  3.0900      3.0155      3.0012      3.0466      3.1594      3.3500      3.6226      3.9671      4.4769      5.3940    
  6.8528      8.8344      11.162      13.515      15.484      16.667      16.791      15.814      21.968      18.414    
  14.499      10.852      7.9276      5.9315      4.7917      4.1991      3.7793      3.4630      3.2529      3.1377    
  3.1057      3.1535      3.2868      3.5147      3.8377      4.2629      5.0490      6.5210      8.8344      11.946    
  15.607      19.375      22.667      24.877      25.547      24.512      32.754      28.025      22.446      16.884    
  12.056      8.4026      6.0467      4.7917      4.1872      3.7709      3.4741      3.2978      3.2320      3.2703    
  3.4157      3.6749      4.0436      4.5822      5.7139      7.8442      11.162      15.607      20.865      26.371    
  31.361      35.001      36.594      35.800      45.802      40.066      32.839      25.230      18.216      12.491    
  8.4026      5.9315      4.7167      4.1507      3.7561      3.4996      3.3809      3.3936      3.5379      3.8173    
  4.2228      4.8820      6.3593      9.1567      13.515      19.375      26.371      33.834      40.829      46.279    
  49.213      49.051      60.165      53.759      45.087      35.494      26.221      18.216      12.056      7.9276    
  5.6251      4.5940      4.0900      3.7410      3.5513      3.5201      3.6458      3.9292      4.3584      5.1032    
  6.8448      10.199      15.484      22.667      31.361      40.829      49.996      57.559      62.248      63.181    
  74.417      67.863      58.166      46.873      35.494      25.230      16.884      10.852      7.1103      5.2292    
  4.4536      4.0119      3.7384      3.6457      3.7336      4.0014      4.4355      5.1990      7.0520      10.734    
  16.667      24.877      35.001      46.279      57.559      67.362      74.133      76.647      86.720      80.695    
  70.617      58.166      45.087      32.839      22.446      14.499      9.1669      6.1777      4.8570      4.2928    
  3.9322      3.7652      3.7978      4.0289      4.4466      5.1580      6.9318      10.627      16.791      25.547    
  36.594      49.213      62.248      74.133      83.094      87.574      95.130      90.344      80.695      67.863    
  53.759      40.066      28.025      18.414      11.575      7.4074      5.3650      4.5576      4.1177      3.8720    
  3.8366      4.0126      4.3912      5.0074      6.5274      9.9030      15.814      24.512      35.800      49.051    
  63.181      76.647      87.574      94.143      95.130      94.143      87.574      76.647      63.181      49.051    
  35.800      24.512      15.814      9.9030      6.5274      5.0074      4.3912      4.0126      3.8366      3.8720    
  4.1177      4.5576      5.3650      7.4074      11.575      18.414      28.025      40.066      53.759      67.863    
  80.695      90.344      94.143      95.130      90.344      80.695      67.863      53.759      40.066      28.025    
  18.414      11.575      7.4074      5.3650      4.5576      4.1177      3.8720      3.8366      4.0126      4.3912    
  5.0075      6.5274      9.9030      15.814      24.512      35.801      49.051      63.181      76.647      87.574    
  87.574      90.344      87.574      79.798      68.419      55.238      41.967      29.946      20.062      12.776    
  8.1166      5.6754      4.6677      4.1811      3.8788      3.7770      3.8788      4.1811      4.6677      5.6754    
  8.1166      12.776      20.062      29.946      41.967      55.238      68.419      79.798      76.647      80.695    
  79.798      74.133      64.751      53.217      41.153      29.905      20.421      13.233      8.4715      5.8515    
  4.7123      4.1933      3.8534      3.6976      3.7299      3.9500      4.3499      4.9896      6.5395      9.8359    
  15.430      23.468      33.677      45.370      57.443      68.419      63.181      67.863      68.419      64.751    
  57.559      48.102      37.805      27.936      19.428      12.844      8.3738      5.8301      4.6757      4.1502    
  3.7942      3.6024      3.5775      3.7197      4.0298      4.4952      5.3687      7.4136      11.280      17.287    
  25.353      35.002      45.370      55.238      49.051      53.759      55.238      53.217      48.102      40.829    
  32.575      24.451      17.316      11.711      7.8461      5.6036      4.5540      4.0545      3.7033      3.4949    
  3.4302      3.5073      3.7299      4.0993      4.6234      5.7195      8.0606      12.100      17.951      25.353    
  33.677      41.967      35.800      40.066      41.967      41.153      37.805      32.575      26.371      20.106    
  14.520      10.092      7.0195      5.2242      4.3640      3.9153      3.5860      3.3795      3.2934      3.3228    
  3.4706      3.7453      4.1473      4.7217      5.9308      8.2984      12.100      17.287      23.468      29.946    
  24.512      28.025      29.946      29.905      27.936      24.451      20.106      15.607      11.546      8.3156    
  6.0812      4.7798      4.1363      3.7458      3.4510      3.2608      3.1696      3.1698      3.2613      3.4533    
  3.7569      4.1708      4.7592      5.9308      8.0605      11.280      15.430      20.062      15.814      18.414    
  20.062      20.421      19.428      17.316      14.520      11.546      8.8345      6.6824      5.2097      4.3565    
  3.8976      3.5616      3.3089      3.1446      3.0605      3.0472      3.1017      3.2304      3.4465      3.7610    
  4.1708      4.7217      5.7195      7.4136      9.8358      12.776      9.9030      11.575      12.776      13.233    
  12.844      11.711      10.092      8.3156      6.6824      5.3940      4.5223      4.0037      3.6586      3.3776    
  3.1703      3.0364      2.9668      2.9515      2.9856      3.0720      3.2211      3.4465      3.7569      4.1473    
  4.6234      5.3687      6.5395      8.1166      6.5274      7.4074      8.1166      8.4715      8.3738      7.8461    
  7.0195      6.0812      5.2097      4.5223      4.0464      3.7130      3.4322      3.2069      3.0443      2.9413    
  2.8893      2.8791      2.9049      2.9670      3.0720      3.2304      3.4533      3.7453      4.0993      4.4952    
  4.9896      5.6754      5.0074      5.3650      5.6754      5.8515      5.8301      5.6036      5.2242      4.7798    
  4.3565      4.0037      3.7130      3.4526      3.2316      3.0591      2.9376      2.8633      2.8290      2.8274    
  2.8531      2.9049      2.9856      3.1017      3.2613      3.4706      3.7299      4.0298      4.3499      4.6677    
  4.3912      4.5576      4.6677      4.7123      4.6757      4.5540      4.3640      4.1363      3.8976      3.6586    
  3.4322      3.2316      3.0660      2.9402      2.8543      2.8050      2.7874      2.7961      2.8274      2.8791    
  2.9515      3.0472      3.1698      3.3228      3.5073      3.7197      3.9500      4.1811      4.0126      4.1177    
  4.1811      4.1933      4.1502      4.0545      3.9153      3.7458      3.5616      3.3776      3.2069      3.0591    
  2.9402      2.8526      2.7960      2.7682      2.7662      2.7874      2.8290      2.8893      2.9668      3.0605    
  3.1696      3.2934      3.4302      3.5775      3.7299      3.8788      3.8366      3.8720      3.8788      3.8534    
  3.7942      3.7033      3.5860      3.4510      3.3089      3.1703      3.0443      2.9376      2.8543      2.7960    
  2.7627      2.7538      2.7682      2.8050      2.8633      2.9413      3.0364      3.1446      3.2608      3.3795    
  3.4949      3.6024      3.6976      3.7770      3.8720      3.8366      3.7770      3.6976      3.6024      3.4949    
  3.3795      3.2608      3.1446      3.0364      2.9413      2.8633      2.8050      2.7682      2.7538      2.7627    
  2.7960      2.8543      2.9376      3.0443      3.1703      3.3089      3.4510      3.5860      3.7033      3.7942    
  3.8534      3.8788      4.1177      4.0126      3.8788      3.7299      3.5775      3.4302      3.2934      3.1696    
  3.0605      2.9668      2.8893      2.8290      2.7874      2.7662      2.7682      2.7960      2.8526      2.9402    
  3.0591      3.2069      3.3776      3.5616      3.7458      3.9153      4.0545      4.1502      4.1933      4.1811    
  4.5576      4.3912      4.1811      3.9500      3.7197      3.5073      3.3228      3.1698      3.0472      2.9515    
  2.8791      2.8274      2.7961      2.7874      2.8050      2.8543      2.9402      3.0660      3.2316      3.4322    
  3.6586      3.8976      4.1363      4.3640      4.5540      4.6757      4.7123      4.6677      5.3650      5.0075    
  4.6677      4.3499      4.0298      3.7299      3.4706      3.2613      3.1017      2.9856      2.9049      2.8531    
  2.8274      2.8290      2.8633      2.9376      3.0591      3.2316      3.4526      3.7130      4.0037      4.3565    
  4.7798      5.2242      5.6036      5.8300      5.8515      5.6754      7.4074      6.5274      5.6754      4.9896    
  4.4952      4.0993      3.7453      3.4533      3.2304      3.0720      2.9670      2.9049      2.8791      2.8893    
  2.9413      3.0443      3.2069      3.4322      3.7130      4.0464      4.5223      5.2097      6.0812      7.0195    
  7.8461      8.3738      8.4715      8.1166      11.575      9.9030      8.1166      6.5395      5.3687      4.6234    
  4.1473      3.7569      3.4465      3.2211      3.0720      2.9856      2.9515      2.9668      3.0364      3.1703    
  3.3776      3.6586      4.0037      4.5223      5.3939      6.6824      8.3156      10.092      11.711      12.844    
  13.233      12.776      18.414      15.814      12.776      9.8359      7.4136      5.7195      4.7217      4.1708    
  3.7610      3.4465      3.2304      3.1017      3.0472      3.0605      3.1446      3.3089      3.5616      3.8976    
  4.3565      5.2097      6.6824      8.8344      11.546      14.520      17.316      19.428      20.421      20.062    
  28.025      24.512      20.062      15.430      11.280      8.0606      5.9308      4.7592      4.1708      3.7569    
  3.4533      3.2613      3.1698      3.1696      3.2608      3.4510      3.7458      4.1363      4.7798      6.0812    
  8.3156      11.546      15.607      20.106      24.451      27.936      29.905      29.946      40.066      35.801    
  29.946      23.468      17.287      12.100      8.2984      5.9308      4.7217      4.1473      3.7453      3.4706    
  3.3228      3.2934      3.3795      3.5860      3.9153      4.3640      5.2242      7.0195      10.092      14.520    
  20.106      26.371      32.575      37.805      41.153      41.967      53.759      49.051      41.967      33.677    
  25.353      17.951      12.100      8.0605      5.7195      4.6234      4.0993      3.7299      3.5073      3.4302    
  3.4949      3.7033      4.0545      4.5540      5.6036      7.8461      11.711      17.316      24.451      32.575    
  40.829      48.102      53.217      55.238      67.863      63.181      55.238      45.370      35.002      25.353    
  17.287      11.280      7.4136      5.3687      4.4952      4.0298      3.7197      3.5775      3.6024      3.7942    
  4.1502      4.6757      5.8300      8.3738      12.844      19.428      27.936      37.805      48.102      57.559    
  64.751      68.419      80.695      76.647      68.419      57.443      45.370      33.677      23.468      15.430    
  9.8358      6.5395      4.9896      4.3499      3.9500      3.7299      3.6976      3.8534      4.1933      4.7123    
  5.8515      8.4715      13.233      20.421      29.905      41.153      53.217      64.751      74.133      79.798    
  90.344      87.574      79.798      68.419      55.238      41.967      29.946      20.062      12.776      8.1166    
  5.6754      4.6677      4.1811      3.8788      3.7770      3.8788      4.1811      4.6677      5.6754      8.1166    
  12.776      20.062      29.946      41.967      55.238      68.419      79.798      87.574      86.720      87.574    
  83.094      74.133      62.248      49.213      36.594      25.547      16.791      10.627      6.9318      5.1580    
  4.4466      4.0289      3.7978      3.7652      3.9322      4.2928      4.8570      6.1777      9.1669      14.499    
  22.446      32.839      45.087      58.166      70.617      80.695      87.574      90.344      87.574      79.798    
  68.419      55.238      41.967      29.946      20.062      12.776      8.1166      5.6754      4.6677      4.1811    
  3.8788      3.7770      3.8788      4.1811      4.6677      5.6754      8.1166      12.776      20.062      29.946    
  41.967      55.238      68.419      79.798      83.094      87.574      86.720      80.695      70.617      58.165    
  45.087      32.839      22.446      14.499      9.1669      6.1777      4.8570      4.2928      3.9322      3.7652    
  3.7978      4.0289      4.4466      5.1580      6.9318      10.627      16.791      25.547      36.594      49.213    
  62.248      74.133      74.133      79.798      80.695      76.647      68.419      57.443      45.370      33.677    
  23.468      15.430      9.8358      6.5395      4.9896      4.3499      3.9500      3.7299      3.6976      3.8534    
  4.1933      4.7123      5.8515      8.4716      13.233      20.421      29.905      41.153      53.217      64.751    
  62.248      68.419      70.617      68.419      62.248      53.217      42.772      32.307      22.928      15.364    
  9.9556      6.6537      5.0259      4.3445      3.9270      3.6712      3.5862      3.6712      3.9270      4.3445    
  5.0259      6.6537      9.9556      15.364      22.929      32.307      42.772      53.217      49.213      55.238    
  58.165      57.443      53.217      46.279      37.805      29.021      20.958      14.328      9.4967      6.4787    
  4.9424      4.2765      3.8622      3.5906      3.4694      3.4961      3.6720      3.9992      4.4682      5.3582    
  7.3618      11.020      16.555      23.821      32.307      41.153      36.594      41.967      45.087      45.370    
  42.772      37.805      31.361      24.451      17.969      12.560      8.5742      6.0549      4.7483      4.1527    
  3.7596      3.4910      3.3520      3.3371      3.4457      3.6843      4.0553      4.5699      5.6165      7.7748    
  11.405      16.555      22.929      29.905      25.547      29.946      32.839      33.677      32.307      29.021    
  24.451      19.375      14.520      10.429      7.4019      5.4866      4.4833      3.9862      3.6277      3.3777    
  3.2373      3.1983      3.2573      3.4200      3.6968      4.0891      4.6311      5.7140      7.7748      11.020    
  15.364      20.421      16.791      20.062      22.446      23.468      22.928      20.958      17.969      14.520    
  11.162      8.3156      6.2170      4.8990      4.1979      3.7927      3.4782      3.2578      3.1287      3.0809    
  3.1081      3.2135      3.4081      3.7039      4.1001      4.6311      5.6166      7.3618      9.9556      13.233    
  10.627      12.776      14.499      15.430      15.364      14.328      12.560      10.429      8.3156      6.5210    
  5.2097      4.3917      3.9265      3.5892      3.3238      3.1390      3.0292      2.9837      2.9947      3.0621    
  3.1943      3.4047      3.7039      4.0891      4.5699      5.3582      6.6537      8.4715      6.9318      8.1166    
  9.1669      9.8358      9.9556      9.4967      8.5742      7.4019      6.2170      5.2097      4.4769      4.0037    
  3.6703      3.3911      3.1763      3.0288      2.9420      2.9055      2.9114      2.9573      3.0481      3.1943    
  3.4081      3.6968      4.0553      4.4682      5.0259      5.8515      5.1580      5.6754      6.1777      6.5395    
  6.6537      6.4787      6.0549      5.4866      4.8990      4.3917      4.0037      3.6996      3.4322      3.2114    
  3.0452      2.9334      2.8696      2.8452      2.8530      2.8898      2.9573      3.0621      3.2135      3.4200    
  3.6844      3.9992      4.3445      4.7123      4.4466      4.6677      4.8570      4.9896      5.0259      4.9424    
  4.7483      4.4833      4.1979      3.9265      3.6703      3.4322      3.2254      3.0591      2.9368      2.8568    
  2.8142      2.8027      2.8167      2.8530      2.9114      2.9947      3.1081      3.2573      3.4457      3.6720    
  3.9270      4.1933      4.0289      4.1811      4.2928      4.3499      4.3445      4.2765      4.1527      3.9862    
  3.7927      3.5892      3.3911      3.2114      3.0591      2.9396      2.8543      2.8015      2.7778      2.7794    
  2.8027      2.8452      2.9055      2.9837      3.0809      3.1983      3.3371      3.4961      3.6712      3.8534    
  3.7978      3.8788      3.9322      3.9500      3.9270      3.8622      3.7596      3.6277      3.4782      3.3238    
  3.1763      3.0452      2.9368      2.8543      2.7984      2.7682      2.7619      2.7778      2.8142      2.8696    
  2.9419      3.0292      3.1287      3.2373      3.3520      3.4694      3.5862      3.6976      3.7652      3.7770    
  3.7652      3.7299      3.6712      3.5906      3.4910      3.3777      3.2578      3.1390      3.0288      2.9334    
  2.8568      2.8015      2.7682      2.7571      2.7682      2.8015      2.8568      2.9334      3.0288      3.1390    
  3.2578      3.3777      3.4910      3.5906      3.6712      3.7299      3.9322      3.8788      3.7978      3.6976    
  3.5862      3.4694      3.3520      3.2373      3.1287      3.0292      2.9420      2.8696      2.8142      2.7778    
  2.7619      2.7682      2.7984      2.8543      2.9368      3.0452      3.1763      3.3238      3.4782      3.6277    
  3.7596      3.8622      3.9270      3.9500      4.2928      4.1811      4.0289      3.8534      3.6712      3.4961    
  3.3371      3.1983      3.0809      2.9837      2.9055      2.8452      2.8027      2.7794      2.7778      2.8015    
  2.8543      2.9397      3.0591      3.2114      3.3911      3.5892      3.7927      3.9862      4.1527      4.2765    
  4.3445      4.3499      4.8570      4.6677      4.4466      4.1933      3.9270      3.6720      3.4457      3.2573    
  3.1081      2.9947      2.9114      2.8530      2.8167      2.8027      2.8142      2.8568      2.9368      3.0591    
  3.2254      3.4322      3.6703      3.9265      4.1979      4.4833      4.7482      4.9424      5.0259      4.9896    
  6.1777      5.6754      5.1580      4.7123      4.3445      3.9992      3.6843      3.4200      3.2135      3.0621    
  2.9573      2.8898      2.8530      2.8452      2.8696      2.9334      3.0452      3.2114      3.4322      3.6996    
  4.0037      4.3916      4.8990      5.4865      6.0548      6.4787      6.6537      6.5395      9.1669      8.1166    
  6.9318      5.8515      5.0259      4.4682      4.0553      3.6968      3.4081      3.1943      3.0481      2.9573    
  2.9114      2.9055      2.9419      3.0288      3.1763      3.3911      3.6703      4.0037      4.4769      5.2097    
  6.2170      7.4019      8.5742      9.4966      9.9556      9.8358      14.499      12.776      10.627      8.4716    
  6.6537      5.3582      4.5699      4.0891      3.7039      3.4047      3.1943      3.0621      2.9947      2.9837    
  3.0292      3.1390      3.3238      3.5892      3.9265      4.3916      5.2097      6.5210      8.3155      10.429    
  12.560      14.328      15.364      15.430      22.446      20.062      16.791      13.233      9.9556      7.3618    
  5.6165      4.6311      4.1001      3.7039      3.4081      3.2135      3.1081      3.0809      3.1287      3.2578    
  3.4782      3.7927      4.1979      4.8990      6.2170      8.3155      11.162      14.520      17.969      20.958    
  22.929      23.468      32.839      29.946      25.547      20.421      15.364      11.020      7.7748      5.7140    
  4.6311      4.0891      3.6968      3.4200      3.2573      3.1983      3.2373      3.3777      3.6277      3.9862    
  4.4833      5.4865      7.4019      10.429      14.520      19.375      24.451      29.021      32.307      33.677    
  45.087      41.967      36.594      29.905      22.929      16.555      11.405      7.7748      5.6166      4.5699    
  4.0553      3.6844      3.4457      3.3371      3.3520      3.4910      3.7596      4.1527      4.7482      6.0548    
  8.5742      12.560      17.969      24.451      31.361      37.805      42.772      45.370      58.166      55.238    
  49.213      41.153      32.307      23.821      16.555      11.020      7.3618      5.3582      4.4682      3.9992    
  3.6720      3.4961      3.4694      3.5906      3.8622      4.2765      4.9424      6.4787      9.4966      14.328    
  20.958      29.021      37.805      46.280      53.217      57.443      70.617      68.419      62.248      53.217    
  42.772      32.307      22.929      15.364      9.9556      6.6537      5.0259      4.3445      3.9270      3.6712    
  3.5862      3.6712      3.9270      4.3445      5.0259      6.6537      9.9556      15.364      22.929      32.307    
  42.772      53.217      62.248      68.419      80.695      79.798      74.133      64.751      53.217      41.153    
  29.905      20.421      13.233      8.4715      5.8515      4.7123      4.1933      3.8534      3.6976      3.7299    
  3.9500      4.3499      4.9896      6.5395      9.8358      15.430      23.468      33.677      45.370      57.443    
  68.419      76.647      74.417      76.647      74.133      67.362      57.559      46.279      35.001      24.877    
  16.667      10.734      7.0520      5.1990      4.4355      4.0014      3.7336      3.6457      3.7384      4.0119    
  4.4536      5.2292      7.1103      10.852      16.884      25.230      35.494      46.873      58.166      67.863    
  76.647      80.695      79.798      74.133      64.751      53.217      41.153      29.905      20.421      13.233    
  8.4715      5.8515      4.7123      4.1933      3.8534      3.6976      3.7299      3.9500      4.3499      4.9896    
  6.5395      9.8359      15.430      23.468      33.677      45.370      57.443      68.419      74.133      79.798    
  80.695      76.647      68.419      57.443      45.370      33.677      23.468      15.430      9.8358      6.5395    
  4.9896      4.3499      3.9500      3.7299      3.6976      3.8534      4.1933      4.7123      5.8515      8.4716    
  13.233      20.421      29.905      41.153      53.217      64.751      67.362      74.133      76.647      74.417    
  67.863      58.165      46.873      35.494      25.230      16.884      10.852      7.1103      5.2293      4.4536    