Fe BCC                                  
   2.85000000000000     
    -0.500000    0.500000    0.500000
     0.500000   -0.500000    0.500000
     0.500000    0.500000   -0.500000
   Fe
     1
Direct
  0.000000  0.000000  0.000000
 
   28   28   28
 0.98126851604E+02 0.95130202207E+02 0.86719913706E+02 0.74417079331E+02 0.60164877364E+02
 0.45801675426E+02 0.32753925214E+02 0.21968006780E+02 0.13943255886E+02 0.87392146339E+01
 0.59572910192E+01 0.47954844655E+01 0.42767665885E+01 0.39575252063E+01 0.38495605541E+01
 0.39575252063E+01 0.42767665885E+01 0.47954844655E+01 0.59572910192E+01 0.87392146339E+01
 0.13943255886E+02 0.21968006780E+02 0.32753925214E+02 0.45801675426E+02 0.60164877364E+02
 0.74417079331E+02 0.86719913706E+02 0.95130202207E+02 0.95130202207E+02 0.94142717642E+02
 0.87574089762E+02 0.76647315077E+02 0.63181448567E+02 0.49050611451E+02 0.35800496226E+02
 0.24511894513E+02 0.15813766340E+02 0.99029923540E+01 0.65274289202E+01 0.50074485000E+01
 0.43912306877E+01 0.40125834390E+01 0.38365894848E+01 0.38720035674E+01 0.41176840812E+01
 0.45576194781E+01 0.53650484222E+01 0.74073864982E+01 0.11574580445E+02 0.18413601999E+02
 0.28024986100E+02 0.40065950601E+02 0.53758972089E+02 0.67863246675E+02 0.80695084505E+02
 0.90344070988E+02 0.86719913706E+02 0.87574089762E+02 0.83094298584E+02 0.74132543776E+02
 0.62247964370E+02 0.49213183880E+02 0.36594174913E+02 0.25546985139E+02 0.16790839725E+02
 0.10627343365E+02 0.69318116362E+01 0.51579536205E+01 0.44466360917E+01 0.40289374612E+01
 0.37977547996E+01 0.37652304663E+01 0.39321709937E+01 0.42927562988E+01 0.48570486286E+01
 0.61777203967E+01 0.91669329753E+01 0.14499373164E+02 0.22445673979E+02 0.32838917179E+02
 0.45087419034E+02 0.58165513878E+02 0.70617102509E+02 0.80695084505E+02 0.74417079331E+02
 0.76647315077E+02 0.74132543776E+02 0.67362154316E+02 0.57559442063E+02 0.46279492710E+02
 0.35000740764E+02 0.24877330782E+02 0.16666533158E+02 0.10733994859E+02 0.70519571526E+01
 0.51990095433E+01 0.44355274033E+01 0.40013502477E+01 0.37335851346E+01 0.36456656762E+01
 0.37384084674E+01 0.40118753076E+01 0.44535602809E+01 0.52292494569E+01 0.71102788861E+01
 0.10851587829E+02 0.16884357820E+02 0.25229861244E+02 0.35493906865E+02 0.46873180165E+02
 0.58165513878E+02 0.67863246675E+02 0.60164877364E+02 0.63181448567E+02 0.62247964370E+02
 0.57559442063E+02 0.49996291678E+02 0.40829200485E+02 0.31361008064E+02 0.22666701386E+02
 0.15484259134E+02 0.10199205207E+02 0.68448180819E+01 0.51031849248E+01 0.43584475379E+01
 0.39292302321E+01 0.36457731516E+01 0.35201023673E+01 0.35513317854E+01 0.37410385571E+01
 0.40899866028E+01 0.45940064406E+01 0.56251403464E+01 0.79276219605E+01 0.12055598878E+02
 0.18215562402E+02 0.26220854052E+02 0.35493906865E+02 0.45087419034E+02 0.53758972089E+02
 0.45801675426E+02 0.49050611451E+02 0.49213183880E+02 0.46279492710E+02 0.40829200485E+02
 0.33834304454E+02 0.26370826598E+02 0.19375098903E+02 0.13515339655E+02 0.91567334165E+01
 0.63593048850E+01 0.48820476537E+01 0.42228273492E+01 0.38172839530E+01 0.35378994305E+01
 0.33936487332E+01 0.33808747885E+01 0.34995931649E+01 0.37560921308E+01 0.41507010597E+01
 0.47167048937E+01 0.59314743487E+01 0.84025878153E+01 0.12490853098E+02 0.18215562402E+02
 0.25229861244E+02 0.32838917179E+02 0.40065950601E+02 0.32753925214E+02 0.35800496226E+02
 0.36594174913E+02 0.35000740764E+02 0.31361008064E+02 0.26370826598E+02 0.20864813113E+02
 0.15607247109E+02 0.11161954980E+02 0.78441719911E+01 0.57138869516E+01 0.45821934502E+01
 0.40435683230E+01 0.36749331616E+01 0.34157223426E+01 0.32702843700E+01 0.32319544896E+01
 0.32978196916E+01 0.34741219359E+01 0.37709453081E+01 0.41871887304E+01 0.47917402506E+01
 0.60466911489E+01 0.84025878153E+01 0.12055598878E+02 0.16884357820E+02 0.22445673979E+02
 0.28024986100E+02 0.21968006780E+02 0.24511894513E+02 0.25546985139E+02 0.24877330782E+02
 0.22666701386E+02 0.19375098903E+02 0.15607247109E+02 0.11946116341E+02 0.88344418315E+01
 0.65209765537E+01 0.50489881852E+01 0.42628568378E+01 0.38377102869E+01 0.35146903059E+01
 0.32867871553E+01 0.31534920064E+01 0.31057075684E+01 0.31376774304E+01 0.32529006990E+01
 0.34629795613E+01 0.37793114702E+01 0.41990977865E+01 0.47917402506E+01 0.59314743487E+01
 0.79276219605E+01 0.10851587829E+02 0.14499373164E+02 0.18413601999E+02 0.13943255886E+02
 0.15813766340E+02 0.16790839725E+02 0.16666533158E+02 0.15484259134E+02 0.13515339655E+02
 0.11161954980E+02 0.88344418315E+01 0.68527537725E+01 0.53939594878E+01 0.44769003741E+01
 0.39671160577E+01 0.36225576700E+01 0.33500184063E+01 0.31594310277E+01 0.30465957492E+01
 0.30011655543E+01 0.30155239413E+01 0.30899718247E+01 0.32334882807E+01 0.34598725545E+01
 0.37793114702E+01 0.41871887304E+01 0.47167048937E+01 0.56251403464E+01 0.71102788861E+01
 0.91669329753E+01 0.11574580445E+02 0.87392146339E+01 0.99029923540E+01 0.10627343365E+02
 0.10733994859E+02 0.10199205207E+02 0.91567334165E+01 0.78441719911E+01 0.65209765537E+01
 0.53939594878E+01 0.45714950931E+01 0.40464247219E+01 0.36995801776E+01 0.34140857872E+01
 0.31932909887E+01 0.30415379571E+01 0.29527438691E+01 0.29167401472E+01 0.29253862072E+01
 0.29765712699E+01 0.30755527440E+01 0.32334882807E+01 0.34629795613E+01 0.37709453081E+01
 0.41507010597E+01 0.45940064406E+01 0.52292494569E+01 0.61777203967E+01 0.74073864982E+01
 0.59572910192E+01 0.65274289202E+01 0.69318116362E+01 0.70519571526E+01 0.68448180819E+01
 0.63593048850E+01 0.57138869516E+01 0.50489881852E+01 0.44769003741E+01 0.40464247219E+01
 0.37269462672E+01 0.34526111713E+01 0.32254323375E+01 0.30543194022E+01 0.29394901028E+01
 0.28747241148E+01 0.28512813993E+01 0.28617578180E+01 0.29028404996E+01 0.29765712699E+01
 0.30899718247E+01 0.32529006990E+01 0.34741219359E+01 0.37560921308E+01 0.40899866028E+01
 0.44535602809E+01 0.48570486286E+01 0.53650484222E+01 0.47954844655E+01 0.50074485000E+01
 0.51579536205E+01 0.51990095433E+01 0.51031849248E+01 0.48820476537E+01 0.45821934502E+01
 0.42628568378E+01 0.39671160577E+01 0.36995801776E+01 0.34526111713E+01 0.32383081865E+01
 0.30660482335E+01 0.29396540869E+01 0.28576413687E+01 0.28148501755E+01 0.28047273416E+01
 0.28214938111E+01 0.28617578180E+01 0.29253862072E+01 0.30155239413E+01 0.31376774304E+01
 0.32978196916E+01 0.34995931649E+01 0.37410385571E+01 0.40118753076E+01 0.42927562988E+01
 0.45576194781E+01 0.42767665885E+01 0.43912306877E+01 0.44466360917E+01 0.44355274033E+01
 0.43584475379E+01 0.42228273492E+01 0.40435683230E+01 0.38377102869E+01 0.36225576700E+01
 0.34140857872E+01 0.32254323375E+01 0.30660482335E+01 0.29412969698E+01 0.28526306406E+01
 0.27983930651E+01 0.27750408629E+01 0.27784092283E+01 0.28047273416E+01 0.28512813993E+01
 0.29167401472E+01 0.30011655543E+01 0.31057075684E+01 0.32319544896E+01 0.33808747885E+01
 0.35513317854E+01 0.37384084674E+01 0.39321709937E+01 0.41176840812E+01 0.39575252063E+01
 0.40125834390E+01 0.40289374612E+01 0.40013502477E+01 0.39292302321E+01 0.38172839530E+01
 0.36749331616E+01 0.35146903059E+01 0.33500184063E+01 0.31932909887E+01 0.30543194022E+01
 0.29396540869E+01 0.28526306406E+01 0.27939772351E+01 0.27627145046E+01 0.27570526616E+01
 0.27750408629E+01 0.28148501755E+01 0.28747241148E+01 0.29527438691E+01 0.30465957492E+01
 0.31534920064E+01 0.32702843700E+01 0.33936487332E+01 0.35201023673E+01 0.36456656762E+01
 0.37652304663E+01 0.38720035674E+01 0.38495605541E+01 0.38365894848E+01 0.37977547996E+01
 0.37335851346E+01 0.36457731516E+01 0.35378994305E+01 0.34157223426E+01 0.32867871553E+01
 0.31594310277E+01 0.30415379571E+01 0.29394901028E+01 0.28576413687E+01 0.27983930651E+01
 0.27627145046E+01 0.27508205383E+01 0.27627145046E+01 0.27983930651E+01 0.28576413687E+01
 0.29394901028E+01 0.30415379571E+01 0.31594310277E+01 0.32867871553E+01 0.34157223426E+01
 0.35378994305E+01 0.36457731516E+01 0.37335851346E+01 0.37977547996E+01 0.38365894848E+01
 0.39575252063E+01 0.38720035674E+01 0.37652304663E+01 0.36456656762E+01 0.35201023673E+01
 0.33936487332E+01 0.32702843700E+01 0.31534920064E+01 0.30465957492E+01 0.29527438691E+01
 0.28747241148E+01 0.28148501755E+01 0.27750408629E+01 0.27570526616E+01 0.27627145046E+01
 0.27939772351E+01 0.28526306406E+01 0.29396540869E+01 0.30543194022E+01 0.31932909887E+01
 0.33500184063E+01 0.35146903059E+01 0.36749331616E+01 0.38172839530E+01 0.39292302321E+01
 0.40013502477E+01 0.40289374612E+01 0.40125834390E+01 0.42767665885E+01 0.41176840812E+01
 0.39321709937E+01 0.37384084674E+01 0.35513317854E+01 0.33808747885E+01 0.32319544896E+01
 0.31057075684E+01 0.30011655543E+01 0.29167401472E+01 0.28512813993E+01 0.28047273416E+01
 0.27784092283E+01 0.27750408629E+01 0.27983930651E+01 0.28526306406E+01 0.29412969698E+01
 0.30660482335E+01 0.32254323375E+01 0.34140857872E+01 0.36225576700E+01 0.38377102869E+01
 0.40435683230E+01 0.42228273492E+01 0.43584475379E+01 0.44355274033E+01 0.44466360917E+01
 0.43912306877E+01 0.47954844655E+01 0.45576194781E+01 0.42927562988E+01 0.40118753076E+01
 0.37410385571E+01 0.34995931649E+01 0.32978196916E+01 0.31376774304E+01 0.30155239413E+01
 0.29253862072E+01 0.28617578180E+01 0.28214938111E+01 0.28047273416E+01 0.28148501755E+01
 0.28576413687E+01 0.29396540869E+01 0.30660482335E+01 0.32383081865E+01 0.34526111713E+01
 0.36995801776E+01 0.39671160577E+01 0.42628568378E+01 0.45821934502E+01 0.48820476537E+01
 0.51031849248E+01 0.51990095433E+01 0.51579536205E+01 0.50074485000E+01 0.59572910192E+01
 0.53650484222E+01 0.48570486286E+01 0.44535602809E+01 0.40899866028E+01 0.37560921308E+01
 0.34741219359E+01 0.32529006990E+01 0.30899718247E+01 0.29765712699E+01 0.29028404996E+01
 0.28617578180E+01 0.28512813993E+01 0.28747241148E+01 0.29394901028E+01 0.30543194022E+01
 0.32254323375E+01 0.34526111713E+01 0.37269462672E+01 0.40464247219E+01 0.44769003741E+01
 0.50489881852E+01 0.57138869516E+01 0.63593048850E+01 0.68448180819E+01 0.70519571526E+01
 0.69318116362E+01 0.65274289202E+01 0.87392146339E+01 0.74073864982E+01 0.61777203967E+01
 0.52292494569E+01 0.45940064406E+01 0.41507010597E+01 0.37709453081E+01 0.34629795613E+01
 0.32334882807E+01 0.30755527440E+01 0.29765712699E+01 0.29253862072E+01 0.29167401472E+01
 0.29527438691E+01 0.30415379571E+01 0.31932909887E+01 0.34140857872E+01 0.36995801776E+01
 0.40464247219E+01 0.45714950931E+01 0.53939594878E+01 0.65209765537E+01 0.78441719911E+01
 0.91567334165E+01 0.10199205207E+02 0.10733994859E+02 0.10627343365E+02 0.99029923540E+01
 0.13943255886E+02 0.11574580445E+02 0.91669329753E+01 0.71102788861E+01 0.56251403464E+01
 0.47167048937E+01 0.41871887304E+01 0.37793114702E+01 0.34598725545E+01 0.32334882807E+01
 0.30899718247E+01 0.30155239413E+01 0.30011655543E+01 0.30465957492E+01 0.31594310277E+01
 0.33500184063E+01 0.36225576700E+01 0.39671160577E+01 0.44769003741E+01 0.53939594878E+01
 0.68527537725E+01 0.88344418315E+01 0.11161954980E+02 0.13515339655E+02 0.15484259134E+02
 0.16666533158E+02 0.16790839725E+02 0.15813766340E+02 0.21968006780E+02 0.18413601999E+02
 0.14499373164E+02 0.10851587829E+02 0.79276219605E+01 0.59314743487E+01 0.47917402506E+01
 0.41990977865E+01 0.37793114702E+01 0.34629795613E+01 0.32529006990E+01 0.31376774304E+01
 0.31057075684E+01 0.31534920064E+01 0.32867871553E+01 0.35146903059E+01 0.38377102869E+01
 0.42628568378E+01 0.50489881852E+01 0.65209765537E+01 0.88344418315E+01 0.11946116341E+02
 0.15607247109E+02 0.19375098903E+02 0.22666701386E+02 0.24877330782E+02 0.25546985139E+02
 0.24511894513E+02 0.32753925214E+02 0.28024986100E+02 0.22445673979E+02 0.16884357820E+02
 0.12055598878E+02 0.84025878153E+01 0.60466911489E+01 0.47917402506E+01 0.41871887304E+01
 0.37709453081E+01 0.34741219359E+01 0.32978196916E+01 0.32319544896E+01 0.32702843700E+01
 0.34157223426E+01 0.36749331616E+01 0.40435683230E+01 0.45821934502E+01 0.57138869516E+01
 0.78441719911E+01 0.11161954980E+02 0.15607247109E+02 0.20864813113E+02 0.26370826598E+02
 0.31361008064E+02 0.35000740764E+02 0.36594174913E+02 0.35800496226E+02 0.45801675426E+02
 0.40065950601E+02 0.32838917179E+02 0.25229861244E+02 0.18215562402E+02 0.12490853098E+02
 0.84025878153E+01 0.59314743487E+01 0.47167048937E+01 0.41507010597E+01 0.37560921308E+01
 0.34995931649E+01 0.33808747885E+01 0.33936487332E+01 0.35378994305E+01 0.38172839530E+01
 0.42228273492E+01 0.48820476537E+01 0.63593048850E+01 0.91567334165E+01 0.13515339655E+02
 0.19375098903E+02 0.26370826598E+02 0.33834304454E+02 0.40829200485E+02 0.46279492710E+02
 0.49213183880E+02 0.49050611451E+02 0.60164877364E+02 0.53758972089E+02 0.45087419034E+02
 0.35493906865E+02 0.26220854052E+02 0.18215562402E+02 0.12055598878E+02 0.79276219605E+01
 0.56251403464E+01 0.45940064406E+01 0.40899866028E+01 0.37410385571E+01 0.35513317854E+01
 0.35201023673E+01 0.36457731516E+01 0.39292302321E+01 0.43584475379E+01 0.51031849248E+01
 0.68448180819E+01 0.10199205207E+02 0.15484259134E+02 0.22666701386E+02 0.31361008064E+02
 0.40829200485E+02 0.49996291678E+02 0.57559442063E+02 0.62247964370E+02 0.63181448567E+02
 0.74417079331E+02 0.67863246675E+02 0.58165513878E+02 0.46873180165E+02 0.35493906865E+02
 0.25229861244E+02 0.16884357820E+02 0.10851587829E+02 0.71102788861E+01 0.52292494569E+01
 0.44535602809E+01 0.40118753076E+01 0.37384084674E+01 0.36456656762E+01 0.37335851346E+01
 0.40013502477E+01 0.44355274033E+01 0.51990095433E+01 0.70519571526E+01 0.10733994859E+02
 0.16666533158E+02 0.24877330782E+02 0.35000740764E+02 0.46279492710E+02 0.57559442063E+02
 0.67362154316E+02 0.74132543776E+02 0.76647315077E+02 0.86719913706E+02 0.80695084505E+02
 0.70617102509E+02 0.58165513878E+02 0.45087419034E+02 0.32838917179E+02 0.22445673979E+02
 0.14499373164E+02 0.91669329753E+01 0.61777203967E+01 0.48570486286E+01 0.42927562988E+01
 0.39321709937E+01 0.37652304663E+01 0.37977547996E+01 0.40289374612E+01 0.44466360917E+01
 0.51579536205E+01 0.69318116362E+01 0.10627343365E+02 0.16790839725E+02 0.25546985139E+02
 0.36594174913E+02 0.49213183880E+02 0.62247964370E+02 0.74132543776E+02 0.83094298584E+02
 0.87574089762E+02 0.95130202207E+02 0.90344070988E+02 0.80695084505E+02 0.67863246675E+02
 0.53758972089E+02 0.40065950601E+02 0.28024986100E+02 0.18413601999E+02 0.11574580445E+02
 0.74073864982E+01 0.53650484222E+01 0.45576194781E+01 0.41176840812E+01 0.38720035674E+01
 0.38365894848E+01 0.40125834390E+01 0.43912306877E+01 0.50074485000E+01 0.65274289202E+01
 0.99029923540E+01 0.15813766340E+02 0.24511894513E+02 0.35800496226E+02 0.49050611451E+02
 0.63181448567E+02 0.76647315077E+02 0.87574089762E+02 0.94142717642E+02 0.95130202207E+02
 0.94142717642E+02 0.87574089762E+02 0.76647315077E+02 0.63181448567E+02 0.49050611451E+02
 0.35800496226E+02 0.24511894513E+02 0.15813766340E+02 0.99029923540E+01 0.65274289202E+01
 0.50074485000E+01 0.43912306877E+01 0.40125834390E+01 0.38365894848E+01 0.38720035674E+01
 0.41176840812E+01 0.45576194781E+01 0.53650484222E+01 0.74073864982E+01 0.11574580445E+02
 0.18413601999E+02 0.28024986100E+02 0.40065950601E+02 0.53758972089E+02 0.67863246675E+02
 0.80695084505E+02 0.90344070988E+02 0.94142717642E+02 0.95130185368E+02 0.90344038607E+02
 0.80695039171E+02 0.67863192168E+02 0.53758913193E+02 0.40065892664E+02 0.28024934324E+02
 0.18413560565E+02 0.11574551657E+02 0.74073702987E+01 0.53650424684E+01 0.45576198631E+01
 0.41176865412E+01 0.38720048161E+01 0.38365882630E+01 0.40125809144E+01 0.43912300745E+01
 0.50074540025E+01 0.65274443531E+01 0.99030198672E+01 0.15813805642E+02 0.24511942786E+02
 0.35800548695E+02 0.49050662377E+02 0.63181492300E+02 0.76647346927E+02 0.87574106502E+02
 0.87574089762E+02 0.90344038607E+02 0.87574061192E+02 0.79797999878E+02 0.68419327415E+02
 0.55238035181E+02 0.41967375769E+02 0.29945710108E+02 0.20062236741E+02 0.12775761878E+02
 0.81166127457E+01 0.56754295009E+01 0.46677264805E+01 0.41811217556E+01 0.38787962972E+01
 0.37770153881E+01 0.38787927778E+01 0.41811183106E+01 0.46677291913E+01 0.56754450727E+01
 0.81166464566E+01 0.12775815942E+02 0.20062309512E+02 0.29945796261E+02 0.41967467302E+02
 0.55238122854E+02 0.68419402229E+02 0.79798054257E+02 0.76647315077E+02 0.80695039171E+02
 0.79797999878E+02 0.74132513271E+02 0.64750937662E+02 0.53217317726E+02 0.41152670724E+02
 0.29905395589E+02 0.20420664507E+02 0.13232905389E+02 0.84715390151E+01 0.58514937852E+01
 0.47123275527E+01 0.41932710311E+01 0.38533563015E+01 0.36976362392E+01 0.37298673784E+01
 0.39499980854E+01 0.43498579596E+01 0.49895688176E+01 0.65394977690E+01 0.98358597561E+01
 0.15429847852E+02 0.23468210321E+02 0.33676961927E+02 0.45369860527E+02 0.57443331608E+02
 0.68419386339E+02 0.63181448567E+02 0.67863192168E+02 0.68419327415E+02 0.64750937662E+02
 0.57559421634E+02 0.48101573463E+02 0.37804790437E+02 0.27935681886E+02 0.19428369615E+02
 0.12844423073E+02 0.83737911659E+01 0.58300512201E+01 0.46757197103E+01 0.41501667477E+01
 0.37942404104E+01 0.36023581096E+01 0.35775086044E+01 0.37197341572E+01 0.40298004040E+01
 0.44951574632E+01 0.53686972873E+01 0.74135705592E+01 0.11280478390E+02 0.17286523280E+02
 0.25352778958E+02 0.35002402425E+02 0.45369847224E+02 0.55238093928E+02 0.49050611451E+02
 0.53758913193E+02 0.55238035181E+02 0.53217317726E+02 0.48101573463E+02 0.40829198486E+02
 0.32575068190E+02 0.24450773502E+02 0.17315967070E+02 0.11710665164E+02 0.78460964432E+01
 0.56036270347E+01 0.45540392470E+01 0.40545311872E+01 0.37032761961E+01 0.34949228790E+01
 0.34302466846E+01 0.35072933669E+01 0.37299035345E+01 0.40992697490E+01 0.46234057452E+01
 0.57194686320E+01 0.80605517020E+01 0.12099993205E+02 0.17951070701E+02 0.25352770158E+02
 0.33676939821E+02 0.41967429908E+02 0.35800496226E+02 0.40065892664E+02 0.41967375769E+02
 0.41152670724E+02 0.37804790437E+02 0.32575068190E+02 0.26370842129E+02 0.20106419705E+02
 0.14520364544E+02 0.10091576781E+02 0.70194771922E+01 0.52242489091E+01 0.43640449608E+01
 0.39152928164E+01 0.35859767567E+01 0.33794523992E+01 0.32933546138E+01 0.33227940615E+01
 0.34706131570E+01 0.37453454860E+01 0.41472582658E+01 0.47216522947E+01 0.59308174959E+01
 0.82983754506E+01 0.12099989567E+02 0.17286510879E+02 0.23468184760E+02 0.29945755957E+02
 0.24511894513E+02 0.28024934324E+02 0.29945710108E+02 0.29905395589E+02 0.27935681886E+02
 0.24450773502E+02 0.20106419705E+02 0.15607270358E+02 0.11546024535E+02 0.83155854581E+01
 0.60811994376E+01 0.47798149434E+01 0.41363186737E+01 0.37458303784E+01 0.34510182207E+01
 0.32608207956E+01 0.31696407015E+01 0.31698032727E+01 0.32612985211E+01 0.34532736727E+01
 0.37569026496E+01 0.41708467076E+01 0.47591956568E+01 0.59308177776E+01 0.80605485114E+01
 0.11280466819E+02 0.15429823813E+02 0.20062271834E+02 0.15813766340E+02 0.18413560565E+02
 0.20062236741E+02 0.20420664507E+02 0.19428369615E+02 0.17315967070E+02 0.14520364544E+02
 0.11546024535E+02 0.88344610861E+01 0.66823989785E+01 0.52097185272E+01 0.43564769734E+01
 0.38976171012E+01 0.35615679967E+01 0.33089070200E+01 0.31445662684E+01 0.30605048956E+01
 0.30471937361E+01 0.31016895270E+01 0.32304391677E+01 0.34464762770E+01 0.37609896245E+01
 0.41708484982E+01 0.47216545147E+01 0.57194679008E+01 0.74135625061E+01 0.98358408408E+01
 0.12775785337E+02 0.99029923540E+01 0.11574551657E+02 0.12775761878E+02 0.13232905389E+02
 0.12844423073E+02 0.11710665164E+02 0.10091576781E+02 0.83155854581E+01 0.66823989785E+01
 0.53939686851E+01 0.45222902333E+01 0.40037418923E+01 0.36585533296E+01 0.33776124673E+01
 0.31702641001E+01 0.30363551238E+01 0.29667894340E+01 0.29515090133E+01 0.29855668542E+01
 0.30719796888E+01 0.32211219591E+01 0.34464774906E+01 0.37569056157E+01 0.41472619290E+01
 0.46234074067E+01 0.53686934562E+01 0.65394856432E+01 0.81166254240E+01 0.65274289202E+01
 0.74073702987E+01 0.81166127457E+01 0.84715390151E+01 0.83737911659E+01 0.78460964432E+01
 0.70194771922E+01 0.60811994376E+01 0.52097185272E+01 0.45222902333E+01 0.40464253311E+01
 0.37129849234E+01 0.34321565205E+01 0.32069141211E+01 0.30442580267E+01 0.29412696165E+01
 0.28892866565E+01 0.28790525152E+01 0.29048907968E+01 0.29670481619E+01 0.30719795749E+01
 0.32304400619E+01 0.34532761533E+01 0.37453489810E+01 0.40992724760E+01 0.44951570201E+01
 0.49895632177E+01 0.56754337933E+01 0.50074485000E+01 0.53650424684E+01 0.56754295009E+01
 0.58514937852E+01 0.58300512201E+01 0.56036270347E+01 0.52242489091E+01 0.47798149434E+01
 0.43564769734E+01 0.40037418923E+01 0.37129849234E+01 0.34526082702E+01 0.32315712448E+01
 0.30591365989E+01 0.29376041284E+01 0.28632645421E+01 0.28290081757E+01 0.28273792377E+01
 0.28531394395E+01 0.29048898233E+01 0.29855655833E+01 0.31016888984E+01 0.32612991934E+01
 0.34706150810E+01 0.37299058615E+01 0.40298017965E+01 0.43498571876E+01 0.46677257555E+01
 0.43912306877E+01 0.45576198631E+01 0.46677264805E+01 0.47123275527E+01 0.46757197103E+01
 0.45540392470E+01 0.43640449608E+01 0.41363186737E+01 0.38976171012E+01 0.36585533296E+01
 0.34321565205E+01 0.32315712448E+01 0.30660457018E+01 0.29402289361E+01 0.28542967755E+01
 0.28050142210E+01 0.27873555361E+01 0.27961469347E+01 0.28273782402E+01 0.28790505530E+01
 0.29515065886E+01 0.30471915953E+01 0.31698020843E+01 0.33227941382E+01 0.35072945513E+01
 0.37197359208E+01 0.39499997872E+01 0.41811194981E+01 0.40125834390E+01 0.41176865412E+01
 0.41811217556E+01 0.41932710311E+01 0.41501667477E+01 0.40545311872E+01 0.39152928164E+01
 0.37458303784E+01 0.35615679967E+01 0.33776124673E+01 0.32069141211E+01 0.30591365989E+01
 0.29402289361E+01 0.28526294539E+01 0.27959831980E+01 0.27681554473E+01 0.27662459770E+01
 0.27873549989E+01 0.28290068530E+01 0.28892845922E+01 0.29667869511E+01 0.30605024899E+01
 0.31696388804E+01 0.32933537458E+01 0.34302469096E+01 0.35775098280E+01 0.37298693416E+01
 0.38787951632E+01 0.38365894848E+01 0.38720048161E+01 0.38787962972E+01 0.38533563015E+01
 0.37942404104E+01 0.37032761961E+01 0.35859767567E+01 0.34510182207E+01 0.33089070200E+01
 0.31702641001E+01 0.30442580267E+01 0.29376041284E+01 0.28542967755E+01 0.27959831980E+01
 0.27627139649E+01 0.27537502132E+01 0.27681553607E+01 0.28050139063E+01 0.28632639300E+01
 0.29412687312E+01 0.30363540770E+01 0.31445652272E+01 0.32608199412E+01 0.33794518828E+01
 0.34949227909E+01 0.36023584675E+01 0.36976369942E+01 0.37770164410E+01 0.38720035674E+01
 0.38365882630E+01 0.37770153881E+01 0.36976362392E+01 0.36023581096E+01 0.34949228790E+01
 0.33794523992E+01 0.32608207956E+01 0.31445662684E+01 0.30363551238E+01 0.29412696165E+01
 0.28632645421E+01 0.28050142210E+01 0.27681554473E+01 0.27537502132E+01 0.27627140496E+01
 0.27959835163E+01 0.28542974094E+01 0.29376050684E+01 0.30442591744E+01 0.31702652939E+01
 0.33089080778E+01 0.34510189802E+01 0.35859771072E+01 0.37032760946E+01 0.37942398787E+01
 0.38533554137E+01 0.38787951632E+01 0.41176840812E+01 0.40125809144E+01 0.38787927778E+01
 0.37298673784E+01 0.35775086044E+01 0.34302466846E+01 0.32933546138E+01 0.31696407015E+01
 0.30605048956E+01 0.29667894340E+01 0.28892866565E+01 0.28290081757E+01 0.27873555361E+01
 0.27662459770E+01 0.27681553607E+01 0.27959835163E+01 0.28526305350E+01 0.29402308803E+01
 0.30591392175E+01 0.32069170031E+01 0.33776151175E+01 0.35615699820E+01 0.37458314386E+01
 0.39152928983E+01 0.40545304024E+01 0.41501652908E+01 0.41932690974E+01 0.41811194981E+01
 0.45576194781E+01 0.43912300745E+01 0.41811183106E+01 0.39499980854E+01 0.37197341572E+01
 0.35072933669E+01 0.33227940615E+01 0.31698032727E+01 0.30471937361E+01 0.29515090133E+01
 0.28790525152E+01 0.28273792377E+01 0.27961469347E+01 0.27873549989E+01 0.28050139063E+01
 0.28542974094E+01 0.29402308803E+01 0.30660487662E+01 0.32315747261E+01 0.34321594578E+01
 0.36585548660E+01 0.38976168108E+01 0.41363167109E+01 0.43640419773E+01 0.45540361202E+01
 0.46757171925E+01 0.47123259977E+01 0.46677257555E+01 0.53650484222E+01 0.50074540025E+01
 0.46677291913E+01 0.43498579596E+01 0.40298004040E+01 0.37299035345E+01 0.34706131570E+01
 0.32612985211E+01 0.31016895270E+01 0.29855668542E+01 0.29048907968E+01 0.28531394395E+01
 0.28273782402E+01 0.28290068530E+01 0.28632639300E+01 0.29376050684E+01 0.30591392175E+01
 0.32315747261E+01 0.34526110599E+01 0.37129853009E+01 0.40037386939E+01 0.43564701510E+01
 0.47798057179E+01 0.52242394306E+01 0.56036196546E+01 0.58300476704E+01 0.58514945790E+01
 0.56754337933E+01 0.74073864982E+01 0.65274443531E+01 0.56754450727E+01 0.49895688176E+01
 0.44951574632E+01 0.40992697490E+01 0.37453454860E+01 0.34532736727E+01 0.32304391677E+01
 0.30719796888E+01 0.29670481619E+01 0.29048898233E+01 0.28790505530E+01 0.28892845922E+01
 0.29412687312E+01 0.30442591744E+01 0.32069170031E+01 0.34321594578E+01 0.37129853009E+01
 0.40464206000E+01 0.45222790668E+01 0.52097016455E+01 0.60811797051E+01 0.70194588696E+01
 0.78460838579E+01 0.83737872701E+01 0.84715443881E+01 0.81166254240E+01 0.11574580445E+02
 0.99030198672E+01 0.81166464566E+01 0.65394977690E+01 0.53686972873E+01 0.46234057452E+01
 0.41472582658E+01 0.37569026496E+01 0.34464762770E+01 0.32211219591E+01 0.30719795749E+01
 0.29855655833E+01 0.29515065886E+01 0.29667869511E+01 0.30363540770E+01 0.31702652939E+01
 0.33776151175E+01 0.36585548660E+01 0.40037386939E+01 0.45222790668E+01 0.53939482949E+01
 0.66823711279E+01 0.83155548872E+01 0.10091550020E+02 0.11710648538E+02 0.12844420636E+02
 0.13232917567E+02 0.12775785337E+02 0.18413601999E+02 0.15813805642E+02 0.12775815942E+02
 0.98358597561E+01 0.74135705592E+01 0.57194686320E+01 0.47216522947E+01 0.41708467076E+01
 0.37609896245E+01 0.34464774906E+01 0.32304400619E+01 0.31016888984E+01 0.30471915953E+01
 0.30605024899E+01 0.31445652272E+01 0.33089080778E+01 0.35615699820E+01 0.38976168108E+01
 0.43564701510E+01 0.52097016455E+01 0.66823711279E+01 0.88344250965E+01 0.11545986789E+02
 0.14520333356E+02 0.17315950165E+02 0.19428371626E+02 0.20420685410E+02 0.20062271834E+02
 0.28024986100E+02 0.24511942786E+02 0.20062309512E+02 0.15429847852E+02 0.11280478390E+02
 0.80605517020E+01 0.59308174959E+01 0.47591956568E+01 0.41708484982E+01 0.37569056157E+01
 0.34532761533E+01 0.32612991934E+01 0.31698020843E+01 0.31696388804E+01 0.32608199412E+01
 0.34510189802E+01 0.37458314386E+01 0.41363167109E+01 0.47798057179E+01 0.60811797051E+01
 0.83155548872E+01 0.11545986789E+02 0.15607232711E+02 0.20106391174E+02 0.24450762117E+02
 0.27935692040E+02 0.29905426496E+02 0.29945755957E+02 0.40065950601E+02 0.35800548695E+02
 0.29945796261E+02 0.23468210321E+02 0.17286523280E+02 0.12099993205E+02 0.82983754506E+01
 0.59308177776E+01 0.47216545147E+01 0.41472619290E+01 0.37453489810E+01 0.34706150810E+01
 0.33227941382E+01 0.32933537458E+01 0.33794518828E+01 0.35859771072E+01 0.39152928983E+01
 0.43640419773E+01 0.52242394306E+01 0.70194588696E+01 0.10091550020E+02 0.14520333356E+02
 0.20106391174E+02 0.26370824589E+02 0.32575068630E+02 0.37804812103E+02 0.41152711844E+02
 0.41967429908E+02 0.53758972089E+02 0.49050662377E+02 0.41967467302E+02 0.33676961927E+02
 0.25352778958E+02 0.17951070701E+02 0.12099989567E+02 0.80605485114E+01 0.57194679008E+01
 0.46234074067E+01 0.40992724760E+01 0.37299058615E+01 0.35072945513E+01 0.34302469096E+01
 0.34949227909E+01 0.37032760946E+01 0.40545304024E+01 0.45540361202E+01 0.56036196546E+01
 0.78460838579E+01 0.11710648538E+02 0.17315950165E+02 0.24450762117E+02 0.32575068630E+02
 0.40829215492E+02 0.48101608422E+02 0.53217367833E+02 0.55238093928E+02 0.67863246675E+02
 0.63181492300E+02 0.55238122854E+02 0.45369860527E+02 0.35002402425E+02 0.25352770158E+02
 0.17286510879E+02 0.11280466819E+02 0.74135625061E+01 0.53686934562E+01 0.44951570201E+01
 0.40298017965E+01 0.37197359208E+01 0.35775098280E+01 0.36023584675E+01 0.37942398787E+01
 0.41501652908E+01 0.46757171925E+01 0.58300476704E+01 0.83737872701E+01 0.12844420636E+02
 0.19428371626E+02 0.27935692040E+02 0.37804812103E+02 0.48101608422E+02 0.57559469093E+02
 0.64750993899E+02 0.68419386339E+02 0.80695084505E+02 0.76647346927E+02 0.68419402229E+02
 0.57443331608E+02 0.45369847224E+02 0.33676939821E+02 0.23468184760E+02 0.15429823813E+02
 0.98358408408E+01 0.65394856432E+01 0.49895632177E+01 0.43498571876E+01 0.39499997872E+01
 0.37298693416E+01 0.36976369942E+01 0.38533554137E+01 0.41932690974E+01 0.47123259977E+01
 0.58514945790E+01 0.84715443881E+01 0.13232917567E+02 0.20420685410E+02 0.29905426496E+02
 0.41152711844E+02 0.53217367833E+02 0.64750993899E+02 0.74132571257E+02 0.79798054257E+02
 0.90344070988E+02 0.87574106502E+02 0.79798054257E+02 0.68419386339E+02 0.55238093928E+02
 0.41967429908E+02 0.29945755957E+02 0.20062271834E+02 0.12775785337E+02 0.81166254240E+01
 0.56754337933E+01 0.46677257555E+01 0.41811194981E+01 0.38787951632E+01 0.37770164410E+01
 0.38787951632E+01 0.41811194981E+01 0.46677257555E+01 0.56754337933E+01 0.81166254240E+01
 0.12775785337E+02 0.20062271834E+02 0.29945755957E+02 0.41967429908E+02 0.55238093928E+02
 0.68419386339E+02 0.79798054257E+02 0.87574106502E+02 0.86719913706E+02 0.87574089762E+02
 0.83094298584E+02 0.74132543776E+02 0.62247964370E+02 0.49213183880E+02 0.36594174913E+02
 0.25546985139E+02 0.16790839725E+02 0.10627343365E+02 0.69318116362E+01 0.51579536205E+01
 0.44466360917E+01 0.40289374612E+01 0.37977547996E+01 0.37652304663E+01 0.39321709937E+01
 0.42927562988E+01 0.48570486286E+01 0.61777203967E+01 0.91669329753E+01 0.14499373164E+02
 0.22445673979E+02 0.32838917179E+02 0.45087419034E+02 0.58165513878E+02 0.70617102509E+02
 0.80695084505E+02 0.87574089762E+02 0.90344038607E+02 0.87574061192E+02 0.79797999878E+02
 0.68419327415E+02 0.55238035181E+02 0.41967375769E+02 0.29945710108E+02 0.20062236741E+02
 0.12775761878E+02 0.81166127457E+01 0.56754295009E+01 0.46677264805E+01 0.41811217556E+01
 0.38787962972E+01 0.37770153881E+01 0.38787927778E+01 0.41811183106E+01 0.46677291913E+01
 0.56754450727E+01 0.81166464566E+01 0.12775815942E+02 0.20062309512E+02 0.29945796261E+02
 0.41967467302E+02 0.55238122854E+02 0.68419402229E+02 0.79798054257E+02 0.83094298584E+02
 0.87574061192E+02 0.86719858591E+02 0.80695007624E+02 0.70617010804E+02 0.58165415659E+02