   1   1   1   0
  0.1157456E+02  0.2468172E-09  0.2468172E-09  0.2468172E-09  0.5000000E-15
  1.000000000000000E-004
  CAR 
 Fe BCC                                  
     47.48114637     -4.91885404  301      5.59107466      1.00000000
     -4.919  0.0000E+00  0.0000E+00  0.0000E+00  0.0000E+00
     -4.744  0.0000E+00  0.0000E+00  0.0000E+00  0.0000E+00
     -4.570  0.0000E+00  0.0000E+00  0.0000E+00  0.0000E+00
     -4.395  0.0000E+00  0.0000E+00  0.0000E+00  0.0000E+00
     -4.220  0.0000E+00  0.0000E+00  0.0000E+00  0.0000E+00
     -4.046  0.0000E+00  0.0000E+00  0.0000E+00  0.0000E+00
     -3.871  0.0000E+00  0.0000E+00  0.0000E+00  0.0000E+00
     -3.696  0.0000E+00  0.0000E+00  0.0000E+00  0.0000E+00
     -3.522  0.0000E+00  0.0000E+00  0.0000E+00  0.0000E+00
     -3.347  0.0000E+00  0.0000E+00  0.0000E+00  0.0000E+00
     -3.172  0.0000E+00  0.0000E+00  0.0000E+00  0.0000E+00
     -2.998  0.0000E+00  0.0000E+00  0.0000E+00  0.0000E+00
     -2.823  0.0000E+00  0.0000E+00  0.0000E+00  0.0000E+00
     -2.648  0.0000E+00  0.0000E+00  0.0000E+00  0.0000E+00
     -2.474  0.9803E-02  0.0000E+00  0.7050E-03  0.0000E+00
     -2.299  0.1707E-01  0.1134E-01  0.3106E-02  0.1051E-02
     -2.124  0.2547E-01  0.1778E-01  0.6791E-02  0.3647E-02
     -1.950  0.2766E-01  0.2621E-01  0.1161E-01  0.7542E-02
     -1.775  0.3260E-01  0.2778E-01  0.1686E-01  0.1233E-01
     -1.600  0.3805E-01  0.3246E-01  0.2303E-01  0.1759E-01
     -1.426  0.4294E-01  0.3758E-01  0.3015E-01  0.2370E-01
     -1.251  0.4793E-01  0.4190E-01  0.3811E-01  0.3068E-01
     -1.076  0.5126E-01  0.4593E-01  0.4677E-01  0.3838E-01
     -0.902  0.5614E-01  0.4839E-01  0.5612E-01  0.4661E-01
     -0.727  0.6245E-01  0.5213E-01  0.6646E-01  0.5536E-01
     -0.552  0.6959E-01  0.5698E-01  0.7798E-01  0.6488E-01
     -0.378  0.7583E-01  0.6236E-01  0.9069E-01  0.7530E-01
     -0.203  0.8493E-01  0.6624E-01  0.1047E+00  0.8657E-01
     -0.028  0.9519E-01  0.7050E-01  0.1204E+00  0.9848E-01
      0.146  0.1070E+00  0.7584E-01  0.1380E+00  0.1113E+00
      0.321  0.1238E+00  0.8108E-01  0.1581E+00  0.1250E+00
      0.496  0.1469E+00  0.8695E-01  0.1816E+00  0.1396E+00
      0.670  0.1936E+00  0.9419E-01  0.2104E+00  0.1554E+00
      0.845  0.3415E+00  0.1026E+00  0.2544E+00  0.1726E+00
      1.020  0.5386E+00  0.1119E+00  0.3364E+00  0.1913E+00
      1.194  0.6612E+00  0.1223E+00  0.4417E+00  0.2117E+00
      1.369  0.7964E+00  0.1370E+00  0.5673E+00  0.2343E+00
      1.544  0.1242E+01  0.1536E+00  0.7430E+00  0.2597E+00
      1.718  0.7321E+00  0.1753E+00  0.9081E+00  0.2882E+00
      1.893  0.5555E+00  0.2072E+00  0.1019E+01  0.3215E+00
      2.068  0.3131E+00  0.2679E+00  0.1099E+01  0.3615E+00
      2.242  0.3528E+00  0.3669E+00  0.1152E+01  0.4216E+00
      2.417  0.1898E+01  0.3722E+00  0.1445E+01  0.4869E+00
      2.592  0.1085E+01  0.3718E+00  0.1685E+01  0.5511E+00
      2.766  0.9075E+00  0.4003E+00  0.1863E+01  0.6187E+00
      2.941  0.1129E+01  0.5590E+00  0.2035E+01  0.7025E+00
      3.116  0.1821E+01  0.7045E+00  0.2277E+01  0.8188E+00
      3.290  0.1363E+01  0.5238E+00  0.2576E+01  0.9333E+00
      3.465  0.5660E+00  0.4147E+00  0.2717E+01  0.1017E+01
      3.640  0.4243E+00  0.2336E+00  0.2801E+01  0.1066E+01
      3.814  0.4207E+00  0.2872E+00  0.2872E+01  0.1105E+01
      3.989  0.5291E+00  0.1495E+01  0.2958E+01  0.1235E+01
      4.164  0.8907E+00  0.1371E+01  0.3075E+01  0.1475E+01
      4.338  0.1613E+01  0.1321E+01  0.3282E+01  0.1712E+01
      4.513  0.1919E+01  0.1073E+01  0.3609E+01  0.1927E+01
      4.688  0.2568E+01  0.1125E+01  0.4015E+01  0.2111E+01
      4.862  0.1636E+01  0.1400E+01  0.4426E+01  0.2326E+01
      5.037  0.1013E+01  0.1131E+01  0.4634E+01  0.2559E+01
      5.212  0.8410E+00  0.8721E+00  0.4794E+01  0.2736E+01
      5.386  0.8359E+00  0.3131E+00  0.4937E+01  0.2837E+01
      5.561  0.8232E+00  0.2268E+00  0.5084E+01  0.2883E+01
      5.736  0.4229E+00  0.2104E+00  0.5221E+01  0.2922E+01
      5.910  0.1488E+00  0.2023E+00  0.5264E+01  0.2959E+01
      6.085  0.1490E+00  0.2819E+00  0.5290E+01  0.3002E+01
      6.260  0.1573E+00  0.3691E+00  0.5316E+01  0.3063E+01
      6.434  0.1602E+00  0.6039E+00  0.5344E+01  0.3146E+01
      6.609  0.1609E+00  0.8652E+00  0.5372E+01  0.3278E+01
      6.784  0.1585E+00  0.1062E+01  0.5400E+01  0.3440E+01
      6.958  0.1508E+00  0.1418E+01  0.5427E+01  0.3660E+01
      7.133  0.1485E+00  0.1500E+01  0.5453E+01  0.3928E+01
      7.308  0.1477E+00  0.1110E+01  0.5479E+01  0.4139E+01
      7.482  0.1466E+00  0.1995E+01  0.5505E+01  0.4384E+01
      7.657  0.1472E+00  0.1606E+01  0.5530E+01  0.4863E+01
      7.832  0.1402E+00  0.1017E+01  0.5555E+01  0.5084E+01
      8.006  0.1401E+00  0.5156E+00  0.5580E+01  0.5232E+01
      8.181  0.1393E+00  0.2392E+00  0.5604E+01  0.5291E+01
      8.356  0.1354E+00  0.2357E+00  0.5628E+01  0.5333E+01
      8.530  0.1316E+00  0.2331E+00  0.5652E+01  0.5374E+01
      8.705  0.1272E+00  0.2216E+00  0.5674E+01  0.5413E+01
      8.880  0.1224E+00  0.2111E+00  0.5696E+01  0.5451E+01
      9.054  0.1195E+00  0.2019E+00  0.5717E+01  0.5487E+01
      9.229  0.1250E+00  0.1864E+00  0.5738E+01  0.5521E+01
      9.404  0.1123E+00  0.1784E+00  0.5758E+01  0.5552E+01
      9.578  0.1088E+00  0.1739E+00  0.5778E+01  0.5583E+01
      9.753  0.1052E+00  0.1688E+00  0.5796E+01  0.5613E+01
      9.928  0.1014E+00  0.1637E+00  0.5814E+01  0.5642E+01
     10.102  0.9747E-01  0.1558E+00  0.5832E+01  0.5670E+01
     10.277  0.9598E-01  0.1464E+00  0.5849E+01  0.5697E+01
     10.452  0.9310E-01  0.1493E+00  0.5865E+01  0.5722E+01
     10.626  0.8746E-01  0.1342E+00  0.5881E+01  0.5746E+01
     10.801  0.8202E-01  0.1287E+00  0.5896E+01  0.5769E+01
     10.976  0.8081E-01  0.1233E+00  0.5911E+01  0.5791E+01
     11.150  0.5880E-01  0.1180E+00  0.5923E+01  0.5812E+01
     11.325  0.5416E-01  0.1126E+00  0.5933E+01  0.5832E+01
     11.500  0.4944E-01  0.1094E+00  0.5942E+01  0.5852E+01
     11.674  0.4437E-01  0.1042E+00  0.5950E+01  0.5870E+01
     11.849  0.3898E-01  0.9929E-01  0.5957E+01  0.5888E+01
     12.024  0.3412E-01  0.8998E-01  0.5964E+01  0.5905E+01
     12.198  0.2978E-01  0.8533E-01  0.5969E+01  0.5921E+01
     12.373  0.2597E-01  0.6239E-01  0.5974E+01  0.5933E+01
     12.548  0.2421E-01  0.5646E-01  0.5979E+01  0.5943E+01
     12.722  0.2361E-01  0.5026E-01  0.5982E+01  0.5952E+01
     12.897  0.2858E-01  0.4360E-01  0.5987E+01  0.5961E+01
     13.072  0.9392E-01  0.3754E-01  0.5997E+01  0.5968E+01
     13.246  0.1968E+00  0.3208E-01  0.6022E+01  0.5974E+01
     13.421  0.2311E+00  0.3229E-01  0.6061E+01  0.5979E+01
     13.596  0.2332E+00  0.2665E-01  0.6102E+01  0.5985E+01
     13.770  0.2335E+00  0.1365E-01  0.6142E+01  0.5988E+01
     13.945  0.2352E+00  0.1562E-01  0.6184E+01  0.5991E+01
     14.120  0.2088E+00  0.2433E-01  0.6224E+01  0.5994E+01
     14.294  0.2054E+00  0.1021E+00  0.6260E+01  0.6002E+01
     14.469  0.1909E+00  0.2310E+00  0.6295E+01  0.6031E+01
     14.644  0.1714E+00  0.3033E+00  0.6327E+01  0.6081E+01
     14.818  0.1595E+00  0.2867E+00  0.6355E+01  0.6132E+01
     14.993  0.1533E+00  0.2869E+00  0.6383E+01  0.6183E+01
     15.168  0.1522E+00  0.2492E+00  0.6409E+01  0.6230E+01
     15.342  0.1647E+00  0.2296E+00  0.6436E+01  0.6272E+01
     15.517  0.1840E+00  0.2026E+00  0.6467E+01  0.6309E+01
     15.692  0.1881E+00  0.1904E+00  0.6500E+01  0.6343E+01
     15.866  0.1930E+00  0.1856E+00  0.6533E+01  0.6375E+01
     16.041  0.1959E+00  0.1640E+00  0.6567E+01  0.6409E+01
     16.216  0.2013E+00  0.1785E+00  0.6602E+01  0.6438E+01
     16.390  0.2064E+00  0.1969E+00  0.6637E+01  0.6471E+01
     16.565  0.2076E+00  0.2046E+00  0.6673E+01  0.6506E+01
     16.740  0.2046E+00  0.2153E+00  0.6710E+01  0.6543E+01
     16.914  0.1915E+00  0.2232E+00  0.6744E+01  0.6581E+01
     17.089  0.1937E+00  0.2242E+00  0.6778E+01  0.6621E+01
     17.264  0.1922E+00  0.2152E+00  0.6812E+01  0.6659E+01
     17.438  0.1907E+00  0.2095E+00  0.6845E+01  0.6696E+01
     17.613  0.1874E+00  0.2004E+00  0.6878E+01  0.6731E+01
     17.788  0.1817E+00  0.2028E+00  0.6911E+01  0.6767E+01
     17.962  0.1827E+00  0.2015E+00  0.6942E+01  0.6803E+01
     18.137  0.1831E+00  0.2002E+00  0.6974E+01  0.6838E+01
     18.312  0.1796E+00  0.1992E+00  0.7006E+01  0.6872E+01
     18.486  0.1787E+00  0.1911E+00  0.7037E+01  0.6906E+01
     18.661  0.1784E+00  0.1930E+00  0.7069E+01  0.6940E+01
     18.836  0.1775E+00  0.1911E+00  0.7100E+01  0.6974E+01
     19.010  0.1759E+00  0.1878E+00  0.7131E+01  0.7007E+01
     19.185  0.1743E+00  0.1872E+00  0.7161E+01  0.7039E+01
     19.360  0.1756E+00  0.1867E+00  0.7192E+01  0.7072E+01
     19.534  0.1747E+00  0.1857E+00  0.7223E+01  0.7104E+01
     19.709  0.1753E+00  0.1838E+00  0.7253E+01  0.7137E+01
     19.884  0.1777E+00  0.1847E+00  0.7284E+01  0.7169E+01
     20.058  0.1793E+00  0.1823E+00  0.7315E+01  0.7201E+01
     20.233  0.1762E+00  0.1840E+00  0.7346E+01  0.7233E+01
     20.408  0.1734E+00  0.1846E+00  0.7377E+01  0.7265E+01
     20.582  0.1743E+00  0.1867E+00  0.7407E+01  0.7298E+01
     20.757  0.1682E+00  0.1865E+00  0.7437E+01  0.7330E+01
     20.932  0.1663E+00  0.1826E+00  0.7466E+01  0.7363E+01
     21.106  0.1647E+00  0.1799E+00  0.7495E+01  0.7394E+01
     21.281  0.1676E+00  0.1773E+00  0.7524E+01  0.7426E+01
     21.456  0.1702E+00  0.1750E+00  0.7554E+01  0.7457E+01
     21.630  0.1756E+00  0.1733E+00  0.7584E+01  0.7487E+01
     21.805  0.1846E+00  0.1723E+00  0.7616E+01  0.7517E+01
     21.980  0.1950E+00  0.1716E+00  0.7649E+01  0.7547E+01
     22.154  0.2009E+00  0.1755E+00  0.7684E+01  0.7577E+01
     22.329  0.2055E+00  0.1814E+00  0.7719E+01  0.7608E+01
     22.504  0.2145E+00  0.1912E+00  0.7756E+01  0.7641E+01
     22.678  0.2217E+00  0.2019E+00  0.7795E+01  0.7676E+01
     22.853  0.2267E+00  0.2157E+00  0.7834E+01  0.7712E+01
     23.028  0.2301E+00  0.2249E+00  0.7874E+01  0.7751E+01
     23.202  0.2343E+00  0.2375E+00  0.7914E+01  0.7792E+01
     23.377  0.2374E+00  0.2492E+00  0.7956E+01  0.7835E+01
     23.552  0.2449E+00  0.2549E+00  0.7998E+01  0.7879E+01
     23.726  0.2514E+00  0.2592E+00  0.8042E+01  0.7924E+01
     23.901  0.2539E+00  0.2588E+00  0.8086E+01  0.7969E+01
     24.076  0.2576E+00  0.2624E+00  0.8131E+01  0.8014E+01
     24.250  0.2602E+00  0.2575E+00  0.8176E+01  0.8059E+01
     24.425  0.2585E+00  0.2634E+00  0.8221E+01  0.8104E+01
     24.600  0.2661E+00  0.2645E+00  0.8267E+01  0.8151E+01
     24.774  0.2863E+00  0.2679E+00  0.8315E+01  0.8197E+01
     24.949  0.2930E+00  0.2685E+00  0.8365E+01  0.8244E+01
     25.124  0.3185E+00  0.2756E+00  0.8419E+01  0.8291E+01
     25.298  0.2936E+00  0.2951E+00  0.8472E+01  0.8341E+01
     25.473  0.2832E+00  0.3005E+00  0.8522E+01  0.8393E+01
     25.648  0.2712E+00  0.3333E+00  0.8570E+01  0.8447E+01
     25.822  0.2604E+00  0.2915E+00  0.8617E+01  0.8502E+01
     25.997  0.2546E+00  0.2748E+00  0.8662E+01  0.8551E+01
     26.172  0.2509E+00  0.2660E+00  0.8706E+01  0.8598E+01
     26.346  0.2523E+00  0.2591E+00  0.8750E+01  0.8644E+01
     26.521  0.2498E+00  0.2553E+00  0.8794E+01  0.8689E+01
     26.696  0.2320E+00  0.2556E+00  0.8837E+01  0.8734E+01
     26.870  0.2078E+00  0.2550E+00  0.8875E+01  0.8779E+01
     27.045  0.1881E+00  0.2537E+00  0.8910E+01  0.8823E+01
     27.220  0.1655E+00  0.2146E+00  0.8941E+01  0.8863E+01
     27.394  0.1507E+00  0.1920E+00  0.8968E+01  0.8899E+01
     27.569  0.1451E+00  0.1673E+00  0.8994E+01  0.8930E+01
     27.744  0.1407E+00  0.1538E+00  0.9019E+01  0.8958E+01
     27.918  0.1368E+00  0.1476E+00  0.9043E+01  0.8985E+01
     28.093  0.1322E+00  0.1432E+00  0.9067E+01  0.9010E+01
     28.268  0.1279E+00  0.1400E+00  0.9090E+01  0.9035E+01
     28.442  0.1243E+00  0.1374E+00  0.9112E+01  0.9059E+01
     28.617  0.1215E+00  0.1350E+00  0.9133E+01  0.9083E+01
     28.792  0.1232E+00  0.1355E+00  0.9154E+01  0.9106E+01
     28.966  0.1272E+00  0.1315E+00  0.9176E+01  0.9130E+01
     29.141  0.1320E+00  0.1290E+00  0.9199E+01  0.9152E+01
     29.316  0.1359E+00  0.1286E+00  0.9222E+01  0.9175E+01
     29.490  0.1425E+00  0.1298E+00  0.9247E+01  0.9197E+01
     29.665  0.1877E+00  0.1364E+00  0.9276E+01  0.9221E+01
     29.840  0.2494E+00  0.1588E+00  0.9315E+01  0.9247E+01
     30.014  0.2952E+00  0.1816E+00  0.9363E+01  0.9275E+01
     30.189  0.3337E+00  0.2375E+00  0.9417E+01  0.9312E+01
     30.364  0.3514E+00  0.2886E+00  0.9481E+01  0.9358E+01
     30.538  0.2982E+00  0.3316E+00  0.9538E+01  0.9412E+01
     30.713  0.2660E+00  0.4046E+00  0.9587E+01  0.9476E+01
     30.888  0.2485E+00  0.3018E+00  0.9632E+01  0.9536E+01
     31.062  0.2413E+00  0.2827E+00  0.9674E+01  0.9587E+01
     31.237  0.2295E+00  0.2671E+00  0.9716E+01  0.9635E+01
     31.412  0.2069E+00  0.2497E+00  0.9754E+01  0.9680E+01
     31.586  0.1954E+00  0.2302E+00  0.9790E+01  0.9722E+01
     31.761  0.1744E+00  0.2104E+00  0.9822E+01  0.9761E+01
     31.936  0.1557E+00  0.1891E+00  0.9851E+01  0.9795E+01
     32.110  0.1487E+00  0.1686E+00  0.9878E+01  0.9826E+01
     32.285  0.1354E+00  0.1573E+00  0.9902E+01  0.9855E+01
     32.460  0.1369E+00  0.1481E+00  0.9926E+01  0.9881E+01
     32.634  0.1383E+00  0.1424E+00  0.9950E+01  0.9907E+01
     32.809  0.1823E+00  0.1387E+00  0.9977E+01  0.9931E+01
     32.984  0.2239E+00  0.1392E+00  0.1001E+02  0.9955E+01
     33.158  0.2856E+00  0.1406E+00  0.1006E+02  0.9980E+01
     33.333  0.3272E+00  0.1876E+00  0.1011E+02  0.1001E+02
     33.508  0.3971E+00  0.2519E+00  0.1017E+02  0.1005E+02
     33.682  0.3868E+00  0.3156E+00  0.1024E+02  0.1010E+02
     33.857  0.3541E+00  0.3794E+00  0.1031E+02  0.1016E+02
     34.032  0.3080E+00  0.3924E+00  0.1037E+02  0.1022E+02
     34.206  0.2674E+00  0.3641E+00  0.1042E+02  0.1029E+02
     34.381  0.2497E+00  0.3264E+00  0.1046E+02  0.1035E+02
     34.556  0.2429E+00  0.2814E+00  0.1050E+02  0.1040E+02
     34.730  0.2320E+00  0.2575E+00  0.1055E+02  0.1045E+02
     34.905  0.2259E+00  0.2430E+00  0.1059E+02  0.1050E+02
     35.080  0.2280E+00  0.2411E+00  0.1063E+02  0.1054E+02
     35.254  0.2332E+00  0.2350E+00  0.1067E+02  0.1058E+02
     35.429  0.2403E+00  0.2335E+00  0.1071E+02  0.1062E+02
     35.604  0.2359E+00  0.2379E+00  0.1075E+02  0.1066E+02
     35.778  0.2489E+00  0.2425E+00  0.1079E+02  0.1070E+02
     35.953  0.2434E+00  0.2508E+00  0.1084E+02  0.1075E+02
     36.128  0.2446E+00  0.2545E+00  0.1088E+02  0.1079E+02
     36.302  0.2440E+00  0.2607E+00  0.1092E+02  0.1084E+02
     36.477  0.2485E+00  0.2549E+00  0.1097E+02  0.1088E+02
     36.652  0.2539E+00  0.2482E+00  0.1101E+02  0.1093E+02
     36.826  0.2855E+00  0.2448E+00  0.1106E+02  0.1097E+02
     37.001  0.3027E+00  0.2451E+00  0.1111E+02  0.1101E+02
     37.176  0.2993E+00  0.2539E+00  0.1116E+02  0.1105E+02
     37.350  0.2848E+00  0.2674E+00  0.1121E+02  0.1110E+02
     37.525  0.2619E+00  0.2789E+00  0.1126E+02  0.1115E+02
     37.700  0.2581E+00  0.2878E+00  0.1130E+02  0.1120E+02
     37.874  0.2582E+00  0.2819E+00  0.1135E+02  0.1125E+02
     38.049  0.2595E+00  0.2760E+00  0.1139E+02  0.1130E+02
     38.224  0.2625E+00  0.2697E+00  0.1144E+02  0.1134E+02
     38.398  0.2452E+00  0.2646E+00  0.1149E+02  0.1139E+02
     38.573  0.2231E+00  0.2655E+00  0.1153E+02  0.1144E+02
     38.748  0.2091E+00  0.2670E+00  0.1156E+02  0.1148E+02
     38.922  0.1986E+00  0.2374E+00  0.1160E+02  0.1153E+02
     39.097  0.1941E+00  0.2255E+00  0.1163E+02  0.1157E+02
     39.272  0.1777E+00  0.2108E+00  0.1167E+02  0.1161E+02
     39.446  0.1584E+00  0.1931E+00  0.1170E+02  0.1164E+02
     39.621  0.1464E+00  0.1761E+00  0.1172E+02  0.1167E+02
     39.796  0.1389E+00  0.1615E+00  0.1175E+02  0.1170E+02
     39.970  0.1213E+00  0.1435E+00  0.1177E+02  0.1173E+02
     40.145  0.1132E+00  0.1367E+00  0.1179E+02  0.1175E+02
     40.320  0.1032E+00  0.1202E+00  0.1181E+02  0.1178E+02
     40.494  0.9645E-01  0.1063E+00  0.1183E+02  0.1180E+02
     40.669  0.9086E-01  0.9951E-01  0.1184E+02  0.1181E+02
     40.844  0.8056E-01  0.9121E-01  0.1186E+02  0.1183E+02
     41.018  0.7464E-01  0.8870E-01  0.1187E+02  0.1185E+02
     41.193  0.7212E-01  0.8796E-01  0.1189E+02  0.1186E+02
     41.368  0.6755E-01  0.7981E-01  0.1190E+02  0.1188E+02
     41.542  0.6596E-01  0.7186E-01  0.1191E+02  0.1189E+02
     41.717  0.6129E-01  0.6823E-01  0.1192E+02  0.1190E+02
     41.892  0.5661E-01  0.6327E-01  0.1193E+02  0.1191E+02
     42.066  0.5193E-01  0.5851E-01  0.1194E+02  0.1192E+02
     42.241  0.4734E-01  0.5395E-01  0.1195E+02  0.1193E+02
     42.416  0.4219E-01  0.4959E-01  0.1196E+02  0.1194E+02
     42.590  0.3860E-01  0.4550E-01  0.1197E+02  0.1195E+02
     42.765  0.3501E-01  0.4307E-01  0.1197E+02  0.1196E+02
     42.940  0.2819E-01  0.3959E-01  0.1198E+02  0.1197E+02
     43.114  0.2438E-01  0.3590E-01  0.1198E+02  0.1197E+02
     43.289  0.2149E-01  0.3128E-01  0.1199E+02  0.1198E+02
     43.464  0.1711E-01  0.2562E-01  0.1199E+02  0.1198E+02
     43.638  0.1487E-01  0.2082E-01  0.1199E+02  0.1199E+02
     43.813  0.1276E-01  0.1800E-01  0.1199E+02  0.1199E+02
     43.988  0.1078E-01  0.1539E-01  0.1200E+02  0.1199E+02
     44.162  0.7235E-02  0.1083E-01  0.1200E+02  0.1200E+02
     44.337  0.3738E-02  0.7538E-02  0.1200E+02  0.1200E+02
     44.512  0.5120E-03  0.4786E-02  0.1200E+02  0.1200E+02
     44.686  0.0000E+00  0.1472E-02  0.1200E+02  0.1200E+02
     44.861  0.0000E+00  0.4900E-03  0.1200E+02  0.1200E+02
     45.036  0.0000E+00  0.3485E-04  0.1200E+02  0.1200E+02
     45.210  0.0000E+00  0.0000E+00  0.1200E+02  0.1200E+02
     45.385  0.0000E+00  0.0000E+00  0.1200E+02  0.1200E+02
     45.560  0.0000E+00  0.0000E+00  0.1200E+02  0.1200E+02
     45.734  0.0000E+00  0.0000E+00  0.1200E+02  0.1200E+02
     45.909  0.0000E+00  0.0000E+00  0.1200E+02  0.1200E+02
     46.084  0.0000E+00  0.0000E+00  0.1200E+02  0.1200E+02
     46.258  0.0000E+00  0.0000E+00  0.1200E+02  0.1200E+02
     46.433  0.0000E+00  0.0000E+00  0.1200E+02  0.1200E+02
     46.608  0.0000E+00  0.0000E+00  0.1200E+02  0.1200E+02
     46.782  0.0000E+00  0.0000E+00  0.1200E+02  0.1200E+02
     46.957  0.0000E+00  0.0000E+00  0.1200E+02  0.1200E+02
     47.132  0.0000E+00  0.0000E+00  0.1200E+02  0.1200E+02
     47.306  0.0000E+00  0.0000E+00  0.1200E+02  0.1200E+02
     47.481  0.0000E+00  0.0000E+00  0.1200E+02  0.1200E+02
     47.48114637     -4.91885404  301      5.59107466      1.00000000
     -4.919  0.0000E+00  0.0000E+00  0.0000E+00  0.0000E+00  0.0000E+00  0.0000E+00  0.0000E+00  0.0000E+00  0.0000E+00  0.0000E+00  0.0000E+00  0.0000E+00  0.0000E+00  0.0000E+00  0.0000E+00  0.0000E+00  0.0000E+00  0.0000E+00
     -4.744  0.0000E+00  0.0000E+00  0.0000E+00  0.0000E+00  0.0000E+00  0.0000E+00  0.0000E+00  0.0000E+00  0.0000E+00  0.0000E+00  0.0000E+00  0.0000E+00  0.0000E+00  0.0000E+00  0.0000E+00  0.0000E+00  0.0000E+00  0.0000E+00
     -4.570  0.0000E+00  0.0000E+00  0.0000E+00  0.0000E+00  0.0000E+00  0.0000E+00  0.0000E+00  0.0000E+00  0.0000E+00  0.0000E+00  0.0000E+00  0.0000E+00  0.0000E+00  0.0000E+00  0.0000E+00  0.0000E+00  0.0000E+00  0.0000E+00
     -4.395  0.0000E+00  0.0000E+00  0.0000E+00  0.0000E+00  0.0000E+00  0.0000E+00  0.0000E+00  0.0000E+00  0.0000E+00  0.0000E+00  0.0000E+00  0.0000E+00  0.0000E+00  0.0000E+00  0.0000E+00  0.0000E+00  0.0000E+00  0.0000E+00
     -4.220  0.0000E+00  0.0000E+00  0.0000E+00  0.0000E+00  0.0000E+00  0.0000E+00  0.0000E+00  0.0000E+00  0.0000E+00  0.0000E+00  0.0000E+00  0.0000E+00  0.0000E+00  0.0000E+00  0.0000E+00  0.0000E+00  0.0000E+00  0.0000E+00
     -4.046  0.0000E+00  0.0000E+00  0.0000E+00  0.0000E+00  0.0000E+00  0.0000E+00  0.0000E+00  0.0000E+00  0.0000E+00  0.0000E+00  0.0000E+00  0.0000E+00  0.0000E+00  0.0000E+00  0.0000E+00  0.0000E+00  0.0000E+00  0.0000E+00
     -3.871  0.0000E+00  0.0000E+00  0.0000E+00  0.0000E+00  0.0000E+00  0.0000E+00  0.0000E+00  0.0000E+00  0.0000E+00  0.0000E+00  0.0000E+00  0.0000E+00  0.0000E+00  0.0000E+00  0.0000E+00  0.0000E+00  0.0000E+00  0.0000E+00
     -3.696  0.0000E+00  0.0000E+00  0.0000E+00  0.0000E+00  0.0000E+00  0.0000E+00  0.0000E+00  0.0000E+00  0.0000E+00  0.0000E+00  0.0000E+00  0.0000E+00  0.0000E+00  0.0000E+00  0.0000E+00  0.0000E+00  0.0000E+00  0.0000E+00
     -3.522  0.0000E+00  0.0000E+00  0.0000E+00  0.0000E+00  0.0000E+00  0.0000E+00  0.0000E+00  0.0000E+00  0.0000E+00  0.0000E+00  0.0000E+00  0.0000E+00  0.0000E+00  0.0000E+00  0.0000E+00  0.0000E+00  0.0000E+00  0.0000E+00
     -3.347  0.0000E+00  0.0000E+00  0.0000E+00  0.0000E+00  0.0000E+00  0.0000E+00  0.0000E+00  0.0000E+00  0.0000E+00  0.0000E+00  0.0000E+00  0.0000E+00  0.0000E+00  0.0000E+00  0.0000E+00  0.0000E+00  0.0000E+00  0.0000E+00
     -3.172  0.0000E+00  0.0000E+00  0.0000E+00  0.0000E+00  0.0000E+00  0.0000E+00  0.0000E+00  0.0000E+00  0.0000E+00  0.0000E+00  0.0000E+00  0.0000E+00  0.0000E+00  0.0000E+00  0.0000E+00  0.0000E+00  0.0000E+00  0.0000E+00
     -2.998  0.0000E+00  0.0000E+00  0.0000E+00  0.0000E+00  0.0000E+00  0.0000E+00  0.0000E+00  0.0000E+00  0.0000E+00  0.0000E+00  0.0000E+00  0.0000E+00  0.0000E+00  0.0000E+00  0.0000E+00  0.0000E+00  0.0000E+00  0.0000E+00
     -2.823  0.0000E+00  0.0000E+00  0.0000E+00  0.0000E+00  0.0000E+00  0.0000E+00  0.0000E+00  0.0000E+00  0.0000E+00  0.0000E+00  0.0000E+00  0.0000E+00  0.0000E+00  0.0000E+00  0.0000E+00  0.0000E+00  0.0000E+00  0.0000E+00
     -2.648  0.0000E+00  0.0000E+00  0.0000E+00  0.0000E+00  0.0000E+00  0.0000E+00  0.0000E+00  0.0000E+00  0.0000E+00  0.0000E+00  0.0000E+00  0.0000E+00  0.0000E+00  0.0000E+00  0.0000E+00  0.0000E+00  0.0000E+00  0.0000E+00
     -2.474  0.6813E-02  0.0000E+00  0.3887E-04  0.0000E+00  0.2497E-04  0.0000E+00  0.1401E-03  0.0000E+00  0.4418E-05  0.0000E+00  0.1349E-05  0.0000E+00  0.1511E-05  0.0000E+00  0.1229E-05  0.0000E+00  0.1944E-05  0.0000E+00
     -2.299  0.1170E-01  0.7845E-02  0.1081E-03  0.5150E-04  0.5599E-04  0.3188E-04  0.3455E-03  0.1745E-03  0.1514E-04  0.4054E-05  0.4866E-05  0.1271E-05  0.5832E-05  0.1366E-05  0.3188E-05  0.1100E-05  0.7790E-05  0.1790E-05
     -2.124  0.1717E-01  0.1213E-01  0.2362E-03  0.1210E-03  0.1256E-03  0.5988E-04  0.6512E-03  0.3851E-03  0.3568E-04  0.1157E-04  0.1856E-04  0.3707E-05  0.1409E-04  0.4399E-05  0.8696E-05  0.2366E-05  0.1983E-04  0.6002E-05
     -1.950  0.1813E-01  0.1759E-01  0.3808E-03  0.2615E-03  0.2468E-03  0.1423E-03  0.9076E-03  0.6955E-03  0.6492E-04  0.2601E-04  0.5079E-04  0.1438E-04  0.2760E-04  0.9894E-05  0.2308E-04  0.6755E-05  0.4542E-04  0.1427E-04
     -1.775  0.2097E-01  0.1815E-01  0.5204E-03  0.4009E-03  0.3495E-03  0.2617E-03  0.1246E-02  0.9448E-03  0.1177E-03  0.4519E-04  0.7808E-04  0.3447E-04  0.5137E-04  0.1849E-04  0.4026E-04  0.1626E-04  0.7831E-04  0.3088E-04
     -1.600  0.2406E-01  0.2085E-01  0.6715E-03  0.5395E-03  0.4603E-03  0.3631E-03  0.1653E-02  0.1280E-02  0.1859E-03  0.7668E-04  0.1110E-03  0.5120E-04  0.8277E-04  0.3198E-04  0.6292E-04  0.2714E-04  0.1198E-03  0.5065E-04
     -1.426  0.2660E-01  0.2376E-01  0.8267E-03  0.6891E-03  0.5932E-03  0.4720E-03  0.2115E-02  0.1680E-02  0.2792E-03  0.1165E-03  0.1624E-03  0.7072E-04  0.1278E-03  0.4929E-04  0.1014E-03  0.4109E-04  0.1713E-03  0.7507E-04
     -1.251  0.2879E-01  0.2597E-01  0.1049E-02  0.8459E-03  0.8160E-03  0.6087E-03  0.2648E-02  0.2129E-02  0.4337E-03  0.1720E-03  0.2843E-03  0.1023E-03  0.2108E-03  0.7436E-04  0.1615E-03  0.6510E-04  0.2644E-03  0.1050E-03
     -1.076  0.2981E-01  0.2771E-01  0.1212E-02  0.1056E-02  0.1010E-02  0.8193E-03  0.3159E-02  0.2622E-02  0.6205E-03  0.2534E-03  0.4215E-03  0.1662E-03  0.3199E-03  0.1151E-03  0.2278E-03  0.9877E-04  0.3933E-03  0.1546E-03
     -0.902  0.3173E-01  0.2841E-01  0.1408E-02  0.1212E-02  0.1194E-02  0.1002E-02  0.3736E-02  0.3082E-02  0.8960E-03  0.3444E-03  0.5733E-03  0.2349E-03  0.4668E-03  0.1645E-03  0.2987E-03  0.1347E-03  0.5400E-03  0.2191E-03
     -0.727  0.3435E-01  0.2990E-01  0.1641E-02  0.1398E-02  0.1381E-02  0.1175E-02  0.4421E-02  0.3597E-02  0.1281E-02  0.4708E-03  0.7545E-03  0.3081E-03  0.6661E-03  0.2262E-03  0.3776E-03  0.1719E-03  0.7104E-03  0.2898E-03
     -0.552  0.3726E-01  0.3200E-01  0.1898E-02  0.1619E-02  0.1577E-02  0.1348E-02  0.5199E-02  0.4203E-02  0.1761E-02  0.6410E-03  0.9692E-03  0.3906E-03  0.9140E-03  0.3056E-03  0.4683E-03  0.2121E-03  0.9069E-03  0.3693E-03
     -0.378  0.3874E-01  0.3431E-01  0.2140E-02  0.1861E-02  0.1808E-02  0.1528E-02  0.6109E-02  0.4883E-02  0.2384E-02  0.8480E-03  0.1407E-02  0.4849E-03  0.1308E-02  0.4012E-03  0.6450E-03  0.2575E-03  0.1293E-02  0.4589E-03
     -0.203  0.4113E-01  0.3531E-01  0.2486E-02  0.2086E-02  0.2178E-02  0.1715E-02  0.7086E-02  0.5623E-02  0.3296E-02  0.1098E-02  0.2202E-02  0.6392E-03  0.1905E-02  0.5351E-03  0.8911E-03  0.3312E-03  0.1830E-02  0.6055E-03
     -0.028  0.4358E-01  0.3628E-01  0.2807E-02  0.2341E-02  0.2541E-02  0.1976E-02  0.8117E-02  0.6348E-02  0.4531E-02  0.1403E-02  0.3218E-02  0.8817E-03  0.2731E-02  0.7085E-03  0.1173E-02  0.4311E-03  0.2502E-02  0.7898E-03
      0.146  0.4634E-01  0.3761E-01  0.3097E-02  0.2657E-02  0.2848E-02  0.2314E-02  0.9265E-02  0.7110E-02  0.6254E-02  0.1785E-02  0.4288E-02  0.1234E-02  0.3847E-02  0.9316E-03  0.1511E-02  0.5475E-03  0.3270E-02  0.1023E-02
      0.321  0.5041E-01  0.3892E-01  0.3482E-02  0.2899E-02  0.3184E-02  0.2571E-02  0.1070E-01  0.7879E-02  0.9044E-02  0.2253E-02  0.5753E-02  0.1566E-02  0.5593E-02  0.1195E-02  0.1916E-02  0.6669E-03  0.4239E-02  0.1271E-02
      0.496  0.5536E-01  0.4041E-01  0.3896E-02  0.3154E-02  0.3551E-02  0.2830E-02  0.1280E-01  0.8713E-02  0.1314E-01  0.2821E-02  0.7613E-02  0.1922E-02  0.8422E-02  0.1507E-02  0.2406E-02  0.8061E-03  0.6015E-02  0.1546E-02
      0.670  0.6377E-01  0.4235E-01  0.4671E-02  0.3457E-02  0.4527E-02  0.3098E-02  0.1576E-01  0.9679E-02  0.2103E-01  0.3590E-02  0.1481E-01  0.2347E-02  0.1444E-01  0.1917E-02  0.3578E-02  0.9624E-03  0.9546E-02  0.1871E-02
      0.845  0.8555E-01  0.4426E-01  0.5479E-02  0.3778E-02  0.5712E-02  0.3377E-02  0.2060E-01  0.1089E-01  0.5948E-01  0.4615E-02  0.3637E-01  0.2844E-02  0.4150E-01  0.2514E-02  0.5287E-02  0.1137E-02  0.1880E-01  0.2390E-02
      1.020  0.9600E-01  0.4569E-01  0.5003E-02  0.4140E-02  0.6379E-02  0.3706E-02  0.2449E-01  0.1222E-01  0.9698E-01  0.5926E-02  0.6356E-01  0.3768E-02  0.9881E-01  0.3308E-02  0.7330E-02  0.1440E-02  0.5352E-01  0.3014E-02
      1.194  0.8915E-01  0.4717E-01  0.4842E-02  0.4434E-02  0.6969E-02  0.4119E-02  0.3105E-01  0.1346E-01  0.1012E+00  0.7453E-02  0.6988E-01  0.5035E-02  0.1554E+00  0.4309E-02  0.1055E-01  0.1803E-02  0.9201E-01  0.3749E-02
      1.369  0.8365E-01  0.4958E-01  0.5452E-02  0.4837E-02  0.7254E-02  0.4693E-02  0.3873E-01  0.1483E-01  0.1107E+00  0.9704E-02  0.7720E-01  0.7066E-02  0.2186E+00  0.5770E-02  0.1648E-01  0.2235E-02  0.1235E+00  0.4726E-02
      1.544  0.9023E-01  0.5210E-01  0.7981E-02  0.5120E-02  0.8797E-02  0.5112E-02  0.6938E-01  0.1630E-01  0.1377E+00  0.1289E-01  0.9205E-01  0.9263E-02  0.4132E+00  0.7730E-02  0.3086E-01  0.2677E-02  0.2192E+00  0.5834E-02
      1.718  0.4303E-01  0.5536E-01  0.7269E-02  0.5384E-02  0.7105E-02  0.5475E-02  0.2720E-01  0.1817E-01  0.9536E-01  0.1758E-01  0.1027E+00  0.1181E-01  0.1953E+00  0.1058E-01  0.4268E-01  0.3181E-02  0.1211E+00  0.7347E-02
      1.893  0.2409E-01  0.6004E-01  0.7265E-02  0.5653E-02  0.4543E-02  0.5845E-02  0.1699E-01  0.2065E-01  0.7389E-01  0.2506E-01  0.1056E+00  0.1531E-01  0.9390E-01  0.1523E-01  0.5100E-01  0.3775E-02  0.1164E+00  0.9718E-02
      2.068  0.4922E-02  0.6916E-01  0.6327E-02  0.5984E-02  0.2499E-02  0.6481E-02  0.1013E-01  0.2373E-01  0.2793E-01  0.3926E-01  0.3989E-01  0.2456E-01  0.5277E-01  0.2429E-01  0.2789E-01  0.4518E-02  0.1062E+00  0.1412E-01
      2.242  0.2187E-02  0.7875E-01  0.8441E-02  0.5802E-02  0.3580E-02  0.7574E-02  0.8877E-02  0.2734E-01  0.3554E-01  0.6283E-01  0.2040E-01  0.4620E-01  0.6546E-01  0.4102E-01  0.5139E-01  0.6842E-02  0.1199E+00  0.2085E-01
      2.417  0.3837E-02  0.7299E-01  0.3528E-01  0.5246E-02  0.1678E-01  0.7629E-02  0.2443E-01  0.2893E-01  0.2681E+00  0.6404E-01  0.3044E+00  0.4860E-01  0.1733E+00  0.4483E-01  0.6939E+00  0.8656E-02  0.2346E+00  0.2221E-01
      2.592  0.2926E-02  0.6506E-01  0.1360E-01  0.4759E-02  0.6583E-02  0.7402E-02  0.8687E-02  0.3127E-01  0.1088E+00  0.6230E-01  0.2077E+00  0.4834E-01  0.1148E+00  0.4875E-01  0.4061E+00  0.1074E-01  0.1411E+00  0.2553E-01
      2.766  0.8699E-02  0.6029E-01  0.1810E-01  0.4473E-02  0.2365E-01  0.7140E-02  0.8652E-02  0.3465E-01  0.1861E+00  0.6502E-01  0.1707E+00  0.5171E-01  0.7138E-01  0.6050E-01  0.2690E+00  0.1307E-01  0.8245E-01  0.3270E-01
      2.941  0.1379E-01  0.5289E-01  0.2827E-01  0.5097E-02  0.3635E-01  0.7366E-02  0.1816E-01  0.3969E-01  0.2558E+00  0.6387E-01  0.2431E+00  0.5886E-01  0.7289E-01  0.1273E+00  0.2572E+00  0.1767E-01  0.1137E+00  0.9268E-01
      3.116  0.2632E-01  0.4724E-01  0.4975E-01  0.6807E-02  0.3694E-01  0.7533E-02  0.4864E-01  0.4939E-01  0.3785E+00  0.6960E-01  0.4410E+00  0.6395E-01  0.1264E+00  0.1903E+00  0.3226E+00  0.2364E-01  0.2450E+00  0.1311E+00
      3.290  0.1665E-01  0.2976E-01  0.3574E-01  0.7342E-02  0.2360E-01  0.7030E-02  0.2595E-01  0.2963E-01  0.3959E+00  0.5842E-01  0.2414E+00  0.6183E-01  0.8171E-01  0.1346E+00  0.2837E+00  0.2649E-01  0.1624E+00  0.8837E-01
      3.465  0.9908E-02  0.1674E-01  0.2214E-01  0.7813E-02  0.1634E-01  0.7437E-02  0.1420E-01  0.1860E-01  0.8195E-01  0.5325E-01  0.1186E+00  0.6022E-01  0.3079E-01  0.8936E-01  0.1295E+00  0.2997E-01  0.9443E-01  0.7240E-01
      3.640  0.6967E-02  0.3767E-02  0.1647E-01  0.7404E-02  0.1229E-01  0.3198E-02  0.8987E-02  0.9865E-02  0.5901E-01  0.1273E-01  0.9643E-01  0.2684E-01  0.2214E-01  0.6069E-01  0.1012E+00  0.9201E-02  0.6734E-01  0.6494E-01
      3.814  0.5395E-02  0.2518E-03  0.1337E-01  0.1406E-01  0.9947E-02  0.5651E-02  0.6594E-02  0.6928E-02  0.7757E-01  0.3635E-01  0.8498E-01  0.6343E-02  0.3629E-01  0.5745E-01  0.9739E-01  0.4381E-01  0.6031E-01  0.7679E-01