    1    1    1    2
  0.1157456E+02  0.2468172E-09  0.2468172E-09  0.2468172E-09  0.5000000E-15
  1.000000000000000E-004
  CAR 
 Fe BCC                                  
      8     68     12
 
  0.4166667E-01  0.4166667E-01  0.4166667E-01  0.4629630E-02
    1       -2.257856     -2.114477   1.000000   1.000000
    2        3.260068      5.224873   1.000000   1.000000
    3        3.260068      5.224873   1.000000   1.000000
    4        3.606573      5.617336   1.000000   0.201752
    5        4.526547      7.244288   1.000000   0.000000
    6        4.526547      7.244288   1.000000   0.000000
    7       28.564053     28.570920   0.000000   0.000000
    8       28.564053     28.570920   0.000000   0.000000
    9       30.872549     30.581009   0.000000   0.000000
   10       33.083681     33.958077   0.000000   0.000000
   11       35.600899     35.895921   0.000000   0.000000
   12       35.600899     35.895921   0.000000   0.000000
 
  0.1250000E+00  0.4166667E-01  0.4166667E-01  0.1388889E-01
    1       -1.461166     -1.303638   1.000000   1.000000
    2        3.046208      4.965801   1.000000   1.000000
    3        3.164643      5.090894   1.000000   1.000000
    4        4.069238      6.117373   1.000000  -0.009081
    5        4.417953      7.076115   1.000000   0.000000
    6        4.573450      7.300686   1.000047   0.000000
    7       25.174886     25.509737   0.000000   0.000000
    8       27.012203     27.182396   0.000000   0.000000
    9       30.180276     30.883547   0.000000   0.000000
   10       31.060974     30.986946   0.000000   0.000000
   11       35.373012     35.637244   0.000000   0.000000
   12       35.438417     36.095610   0.000000   0.000000
 
  0.2083333E+00  0.4166667E-01  0.4166667E-01  0.1388889E-01
    1       -0.322743     -0.084531   1.000000   1.000000
    2        2.776441      4.638480   1.000000   1.000000
    3        3.083848      4.887522   1.000000   1.000000
    4        4.416438      6.824851   1.000000   0.000000
    5        4.630824      7.013261   1.000000   0.000000
    6        4.733739      7.376398   1.050573   0.000000
    7       21.328107     21.938424   0.000000   0.000000
    8       25.452463     25.675227   0.000000   0.000000
    9       27.934472     28.668559   0.000000   0.000000
   10       30.692472     30.747512   0.000000   0.000000
   11       34.440774     35.028023   0.000000   0.000000
   12       36.556171     36.768848   0.000000   0.000000
 
  0.2916667E+00  0.4166667E-01  0.4166667E-01  0.1388889E-01
    1        0.627483      1.223565   1.000000   1.000000
    2        2.524295      4.333805   1.000000   1.000000
    3        3.479303      4.863611   1.000000   1.002238
    4        4.521964      7.075694   1.000000   0.000000
    5        4.689699      7.459381   1.001776   0.000000
    6        5.521859      7.629644   0.544574   0.000000
    7       17.574995     18.423323   0.000000   0.000000
    8       24.146554     24.355847   0.000000   0.000000
    9       26.173557     26.843966   0.000000   0.000000
   10       30.261820     30.493245   0.000000   0.000000
   11       33.930008     34.499520   0.000000   0.000000
   12       38.728784     38.946339   0.000000   0.000000
 
  0.3750000E+00  0.4166667E-01  0.4166667E-01  0.1388889E-01
    1        0.899163      2.026553   1.000000   1.000000
    2        2.348157      4.122101   1.000000   1.000000
    3        4.465424      5.423652   1.000000   0.938957
    4        4.707864      7.165829   1.000000   0.000000
    5        4.736361      7.528004   1.049967   0.000000
    6        6.435733      8.352053  -0.044122   0.000000
    7       14.379246     15.514822   0.000000   0.000000
    8       23.286658     23.466283   0.000000   0.000000
    9       24.983292     25.592555   0.000000   0.000000
   10       29.988198     30.319426   0.000000   0.000000
   11       33.766602     34.356632   0.000000   0.000000
   12       40.036211     40.101749   0.000000   0.000000
 
  0.4583333E+00  0.4166667E-01  0.4166667E-01  0.6944444E-02
    1        0.909540      2.212158   1.000000   1.000000
    2        2.285128      4.046663   1.000000   1.000000
    3        4.629628      5.930800   1.000000   0.265496
    4        4.754399      7.195818   1.000000   0.000000
    5        5.115085      7.555260   1.041299   0.000000
    6        7.134808      8.708623  -0.000354   0.000000
    7       12.840140     14.218336   0.000000   0.000000
    8       22.984213     23.150861   0.000000   0.000000
    9       24.556117     25.137874   0.000000   0.000000
   10       29.888037     30.253100   0.000000   0.000000
   11       33.746121     34.351602   0.000000   0.000000
   12       39.972618     39.977601   0.000000   0.000000
 
 -0.4166667E-01  0.4166667E-01  0.4166667E-01  0.3472222E-02
    1       -2.537036     -2.395696   1.000000   1.000000
    2        3.343405      5.325132   1.000000   1.000000
    3        3.343407      5.325144   1.000000   1.000000
    4        3.382513      5.374185   1.000000   1.068792
    5        4.506778      7.222182   1.000000   0.000000
    6        4.593721      7.334467   1.000000   0.000000
    7       29.567225     29.383610   0.000000   0.000000
    8       30.341418     30.121251   0.000000   0.000000
    9       30.341420     30.121252   0.000000   0.000000
   10       34.180104     34.506337   0.000000   0.000000
   11       35.895753     36.736684   0.000000   0.000000
   12       35.895753     36.743331   0.000000   0.000000
 
  0.1250000E+00  0.1250000E+00  0.4166667E-01  0.1388889E-01
    1       -0.498202     -0.299527   1.000000   1.000000
    2        2.869063      4.728085   1.000000   1.000000
    3        2.892266      4.768458   1.000000   1.000000
    4        4.403487      6.806021   1.000000   0.000000
    5        4.625986      7.031324   1.000000   0.000000
    6        4.738393      7.357829   1.061649   0.000000
    7       23.118263     23.571218   0.000000   0.000000
    8       24.035913     24.464165   0.000000   0.000000
    9       27.297714     28.010424   0.000000   0.000000
   10       32.010135     31.835406   0.000000   0.000000
   11       35.890994     36.232994   0.000000   0.000000
   12       37.082133     37.587439   0.000000   0.000000
 
  0.2083333E+00  0.1250000E+00  0.4166667E-01  0.2777778E-01
    1        0.613852      0.990420   1.000000   1.000000
    2        2.603200      4.408866   1.000000   1.000000
    3        2.837737      4.545608   1.000000   1.000000
    4        4.446907      7.036995   1.000000   0.000000
    5        4.714102      7.444589   1.000000   0.000000
    6        5.628768      7.692046   0.408611   0.000000
    7       19.677851     20.364627   0.000000   0.000000
    8       22.259665     22.748600   0.000000   0.000000
    9       25.400951     26.014215   0.000000   0.000000
   10       32.160587     32.150273   0.000000   0.000000
   11       36.435080     36.794606   0.000000   0.000000
   12       37.436884     37.841601   0.000000   0.000000
 
  0.2916667E+00  0.1250000E+00  0.4166667E-01  0.2777778E-01
    1        1.183740      2.099145   1.000000   1.000000
    2        2.402670      4.155917   1.000000   1.000000
    3        3.363638      4.657513   1.000000   1.002940
    4        4.559614      7.131792   1.000000   0.000000
    5        4.792108      7.532110   1.000721   0.000000
    6        6.781420      8.653355  -0.039630   0.000000
    7       16.132482     17.053876   0.000000   0.000000
    8       21.177658     21.671588   0.000000   0.000000
    9       24.126942     24.676450   0.000000   0.000000
   10       31.948210     32.080710   0.000000   0.000000
   11       36.623642     37.076457   0.000000   0.000000
   12       38.355815     38.598876   0.000000   0.000000
 
  0.3750000E+00  0.1250000E+00  0.4166667E-01  0.2777778E-01
    1        1.221237      2.518434   1.000000   1.000000
    2        2.299939      4.027247   1.000000   1.000000
    3        3.984451      5.160730   1.000000   1.008919
    4        4.636551      7.215118   1.000000   0.000000
    5        4.905248      7.585433   1.015206   0.000000
    6        8.126386      9.574407  -0.000109   0.000000
    7       13.414687     14.639592   0.000000   0.000000
    8       20.603217     21.089348   0.000000   0.000000
    9       23.457436     23.966940   0.000000   0.000000
   10       31.788548     31.989110   0.000000   0.000000
   11       36.653693     37.167749   0.000000   0.000000
   12       39.032872     39.090568   0.000000   0.000000
 
 -0.1250000E+00  0.1250000E+00  0.4166667E-01  0.1388889E-01
    1       -1.984977     -1.838255   1.000000   1.000000
    2        3.213886      5.166357   1.000000   1.000000
    3        3.325216      5.284071   1.000000   1.000000
    4        3.663258      5.681921   1.000000   0.042400
    5        4.355420      7.016469   1.000000   0.000000
    6        4.635260      7.383077   1.000000   0.000000
    7       27.003555     27.151621   0.000000   0.000000
    8       29.228717     29.209216   0.000000   0.000000
    9       29.740509     29.772622   0.000000   0.000000
   10       33.310792     33.626280   0.000000   0.000000
   11       33.695054     34.439521   0.000000   0.000000
   12       34.363216     35.009062   0.000000   0.000000
 
  0.2083333E+00  0.2083333E+00  0.4166667E-01  0.1388889E-01
    1        1.451110      2.175230   1.000000   1.000000
    2        2.430841      4.147269   1.000000   1.000000
    3        2.790543      4.352613   1.000000   1.000000
    4        4.509428      7.089833   1.000000   0.000000
    5        4.810084      7.535505   1.000000   0.000000
    6        6.908753      8.791042  -0.021172   0.000000
    7       18.084958     18.839948   0.000000   0.000000
    8       18.882817     19.558352   0.000000   0.000000
    9       23.991713     24.537900   0.000000   0.000000
   10       33.064358     33.069676   0.000000   0.000000
   11       36.524740     36.821429   0.000000   0.000000
   12       40.286634     40.573678   0.000000   0.000000
 
  0.2916667E+00  0.2083333E+00  0.4166667E-01  0.2777778E-01
    1        1.679838      2.931050   1.000000   1.000000
    2        2.346185      4.005855   1.000000   1.000000
    3        3.121757      4.455801   1.000000   1.000000
    4        4.620696      7.204679   1.000000   0.000000
    5        4.878355      7.561634   1.000000   0.000000
    6        8.622565     10.152433   0.000000   0.000000
    7       15.038339     15.995299   0.000000   0.000000
    8       17.732052     18.429542   0.000000   0.000000
    9       23.191154     23.718737   0.000000   0.000000
   10       33.410987     33.486363   0.000000   0.000000
   11       37.053720     37.206182   0.000000   0.000000
   12       40.814202     41.205429   0.000000   0.000000
 
  0.3750000E+00  0.2083333E+00  0.4166667E-01  0.1388889E-01
    1        1.661616      3.072281   1.000000   1.000000
    2        2.330801      3.984878   1.000000   1.000000
    3        3.314727      4.643497   1.000000   1.001315
    4        4.678524      7.273106   1.000000   0.000000
    5        4.914930      7.560675   1.001254   0.000000
    6       10.004574     11.198509   0.000000   0.000000
    7       13.095193     14.294793   0.000000   0.000000
    8       17.423779     18.116037   0.000000   0.000000
    9       22.922103     23.444997   0.000000   0.000000
   10       33.473605     33.586989   0.000000   0.000000
   11       37.472539     37.507165   0.000000   0.000000
   12       40.560913     41.001704   0.000000   0.000000
 
 -0.2083333E+00  0.2083333E+00  0.4166667E-01  0.1388889E-01
    1       -0.977979     -0.796201   1.000000   1.000000
    2        2.975171      4.876909   1.000000   1.000000
    3        3.236821      5.130219   1.000000   1.000000
    4        4.197120      6.272911   1.000000   0.000000
    5        4.281800      6.862145   1.000000   0.000000
    6        4.682475      7.433491   1.000079   0.000000
    7       23.263191     23.755887   0.000000   0.000000
    8       27.421328     27.498901   0.000000   0.000000
    9       28.749260     29.112242   0.000000   0.000000
   10       31.599721     32.185721   0.000000   0.000000
   11       33.087081     33.630866   0.000000   0.000000
   12       34.511119     34.755775   0.000000   0.000000
 
 -0.1250000E+00  0.2083333E+00  0.4166667E-01  0.1388889E-01
    1       -1.208886     -1.042782   1.000000   1.000000
    2        3.143046      5.058210   1.000000   1.000000
    3        3.197966      5.135176   1.000000   1.000000
    4        4.050306      6.098264   1.000000  -0.004404
    5        4.175750      6.754193   1.000000   0.000000
    6        4.729335      7.486447   1.000265   0.000000
    7       24.931408     25.252109   0.000000   0.000000
    8       26.294830     26.681243   0.000000   0.000000
    9       29.778634     29.854287   0.000000   0.000000
   10       31.192153     31.807462   0.000000   0.000000
   11       33.015027     33.347424   0.000000   0.000000
   12       35.589693     36.043548   0.000000   0.000000
 
  0.2916667E+00  0.2916667E+00  0.4166667E-01  0.1388889E-01
    1        1.924361      3.429035   1.000000   1.000000
    2        2.462394      3.989685   1.000000   1.000000
    3        2.856566      4.271812   1.000000   1.000000
    4        4.733371      7.334260   1.000000   0.000000
    5        4.862625      7.497727   1.000000   0.000000
    6       10.910835     12.111360   0.000000   0.000000
    7       13.711283     14.700770   0.000000   0.000000
    8       15.333574     16.198728   0.000000   0.000000
    9       22.775126     23.319346   0.000000   0.000000
   10       34.718016     34.763746   0.000000   0.000000
   11       36.224228     36.291328   0.000000   0.000000
   12       42.887766     43.584460   0.000000   0.000000
 
 -0.2916667E+00  0.2916667E+00  0.4166667E-01  0.1388889E-01
    1        0.158244      0.527980   1.000000   1.000000
    2        2.708175      4.556200   1.000000   1.000000
    3        3.304090      4.953925   1.000000   1.000000
    4        4.394808      6.898341   1.000000   0.000000
    5        4.754656      7.020995   1.000000   0.000000
    6        4.864724      7.500082   1.059584   0.000000
    7       19.385361     20.126134   0.000000   0.000000
    8       25.755335     25.846713   0.000000   0.000000
    9       27.355244     27.948633   0.000000   0.000000
   10       30.325087     30.779769   0.000000   0.000000
   11       32.734834     33.278481   0.000000   0.000000
   12       36.036280     36.270900   0.000000   0.000000
 
 -0.2083333E+00  0.2916667E+00  0.4166667E-01  0.2777778E-01
    1       -0.107839      0.149988   1.000000   1.000000
    2        2.899795      4.777603   1.000000   1.000000
    3        3.071120      4.915157   1.000000   1.000000
    4        4.176830      6.661639   1.000000  -0.000041
    5        4.667673      6.794461   1.000000   0.000000
    6        4.877494      7.585768   1.047625   0.000000
    7       21.506571     22.110786   0.000000   0.000000
    8       24.181495     24.621517   0.000000   0.000000
    9       28.515340     28.884393   0.000000   0.000000
   10       30.317453     30.690638   0.000000   0.000000
   11       33.377295     33.736631   0.000000   0.000000
   12       35.946732     36.341074   0.000000   0.000000
 
 -0.3750000E+00  0.3750000E+00  0.4166667E-01  0.1388889E-01
    1        0.766723      1.656152   1.000000   1.000000
    2        2.484261      4.289444   1.000000   1.000000
    3        3.962199      5.180191   1.000000   1.008781
    4        4.588356      7.040263   1.000000   0.000000
    5        5.089725      7.603022   1.020583   0.000000
    6        5.498193      7.742466   0.371385   0.000000
    7       15.838148     16.832706   0.000000   0.000000
    8       24.524886     24.596268   0.000000   0.000000
    9       25.967537     26.575815   0.000000   0.000000
   10       29.734861     30.203200   0.000000   0.000000
   11       32.709860     33.283406   0.000000   0.000000
   12       37.636868     37.830653   0.000000   0.000000
 
 -0.2916667E+00  0.3750000E+00  0.4166667E-01  0.2777778E-01
    1        0.808744      1.430481   1.000000   1.000000
    2        2.652547      4.473787   1.000000   1.000000
    3        3.219012      4.799002   1.000000   1.000961
    4        4.374603      6.799156   1.000000   0.000000
    5        4.940719      7.472994   1.003473   0.000000
    6        5.634194      7.836236   0.338179   0.000000
    7       17.760077     18.594532   0.000000   0.000000
    8       22.828736     23.282155   0.000000   0.000000
    9       26.801597     27.194348   0.000000   0.000000
   10       30.227375     30.618206   0.000000   0.000000
   11       34.093316     34.466800   0.000000   0.000000
   12       36.057332     36.436081   0.000000   0.000000
 
 -0.2083333E+00  0.3750000E+00  0.4166667E-01  0.1388889E-01
    1        0.876150      1.355354   1.000000   1.000000
    2        2.637863      4.485253   1.000000   1.000000
    3        3.000724      4.729480   1.000000   1.000000
    4        4.220527      6.651694   1.000000   0.000000
    5        4.889112      7.416601   1.000000   0.000000
    6        5.744466      7.931844   0.243024   0.000000
    7       19.749883     20.449790   0.000000   0.000000
    8       20.569804     21.196298   0.000000   0.000000
    9       27.844912     28.326975   0.000000   0.000000
   10       29.789975     29.966771   0.000000   0.000000
   11       33.458304     33.841914   0.000000   0.000000
   12       38.852981     39.174610   0.000000   0.000000
 
 -0.4583333E+00  0.4583333E+00  0.4166667E-01  0.1388889E-01
    1        0.855284      2.118147   1.000000   1.000000
    2        2.357832      4.139704   1.000000   1.000000
    3        4.408206      5.845728   1.000000   0.379130
    4        4.601960      7.115863   1.000000   0.000000
    5        5.892574      7.804381   0.302514   0.000000
    6        6.232233      8.199124  -0.007254   0.000000
    7       13.256557     14.566762   0.000000   0.000000
    8       23.874696     23.926395   0.000000   0.000000
    9       25.133564     25.703291   0.000000   0.000000
   10       29.496697     29.999575   0.000000   0.000000
   11       32.781536     33.392705   0.000000   0.000000
   12       38.521127     38.575415   0.000000   0.000000
 
 -0.3750000E+00  0.4583333E+00  0.4166667E-01  0.2777778E-01
    1        1.063607      2.226928   1.000000   1.000000
    2        2.496785      4.281922   1.000000   1.000000
    3        3.675880      5.079163   1.000000   1.014833
    4        4.512851      6.971068   1.000000   0.000000
    5        5.338249      7.734139   0.996791   0.000000
    6        6.813231      8.599413  -0.024199   0.000000
    7       14.509567     15.615812   0.000000   0.000000
    8       21.947229     22.395184   0.000000   0.000000
    9       25.654113     26.001885   0.000000   0.000000
   10       30.159734     30.613268   0.000000   0.000000
   11       34.712783     35.152889   0.000000   0.000000
   12       36.402616     36.632637   0.000000   0.000000
 
 -0.2916667E+00  0.4583333E+00  0.4166667E-01  0.2777778E-01
    1        1.441479      2.422155   1.000000   1.000000
    2        2.472081      4.223654   1.000000   1.000000
    3        3.092380      4.666997   1.000000   1.000000
    4        4.404833      6.821340   1.000000   0.000000
    5        5.047996      7.579556   1.003382   0.000000
    6        7.158790      8.977682  -0.013415   0.000000
    7       16.460114     17.348941   0.000000   0.000000
    8       19.131371     19.789858   0.000000   0.000000
    9       26.699274     27.121766   0.000000   0.000000
   10       30.166518     30.415329   0.000000   0.000000
   11       33.921958     34.223164   0.000000   0.000000
   12       39.428726     39.834084   0.000000   0.000000
 
 -0.4583333E+00 -0.4583333E+00  0.4166667E-01  0.1388889E-01
    1        1.066048      2.410584   1.000000   1.000000
    2        2.441807      4.216331   1.000000   1.000000
    3        3.876369      5.361703   1.000000   0.963838
    4        4.516225      7.011087   1.000000   0.000000
    5        5.580919      7.886315   0.696457   0.000000
    6        7.738448      9.118077  -0.000116   0.000000
    7       12.881965     14.230273   0.000000   0.000000
    8       21.632010     22.074124   0.000000   0.000000
    9       25.252569     25.577551   0.000000   0.000000
   10       30.131371     30.608992   0.000000   0.000000
   11       34.958284     35.494948   0.000000   0.000000
   12       36.612801     36.670372   0.000000   0.000000
 
 -0.3750000E+00 -0.4583333E+00  0.4166667E-01  0.2777778E-01
    1        1.488790      2.866571   1.000000   1.000000
    2        2.491823      4.229242   1.000000   1.000000
    3        3.212328      4.704589   1.000000   1.002365
    4        4.527523      6.976375   1.000000   0.000000
    5        5.252078      7.674785   1.023250   0.000000
    6        8.883244     10.255151   0.000000   0.000000
    7       13.587907     14.750047   0.000000   0.000000
    8       18.516352     19.166413   0.000000   0.000000
    9       26.047053     26.435143   0.000000   0.000000
   10       30.427217     30.759889   0.000000   0.000000
   11       34.598656     34.725535   0.000000   0.000000
   12       38.890995     39.384246   0.000000   0.000000
 
 -0.2916667E+00 -0.4583333E+00  0.4166667E-01  0.1388889E-01
    1        1.892897      3.227344   1.000000   1.000000
    2        2.306392      3.987278   1.000000   1.000000
    3        2.926291      4.516905   1.000000   1.000000
    4        4.588914      7.004554   1.000000   0.000000
    5        5.071556      7.541814   1.001776   0.000000
    6        9.234049     10.673553   0.000000   0.000000
    7       15.086223     16.037379   0.000000   0.000000
    8       16.220107     17.016201   0.000000   0.000000
    9       26.405006     26.881116   0.000000   0.000000
   10       30.846589     31.012550   0.000000   0.000000
   11       33.449059     33.665184   0.000000   0.000000
   12       40.749913     41.525639   0.000000   0.000000
 
 -0.3750000E+00 -0.3750000E+00  0.4166667E-01  0.1388889E-01
    1        1.972809      3.497315   1.000000   1.000000
    2        2.441039      4.112762   1.000000   1.000000
    3        2.720135      4.257014   1.000000   1.000000
    4        4.727741      7.158824   1.000000   0.000000
    5        5.048381      7.478733   1.006945   0.000000
    6       11.066642     12.214273   0.000000   0.000000
    7       13.083022     14.202559   0.000000   0.000000
    8       15.630696     16.463139   0.000000   0.000000
    9       26.260217     26.749458   0.000000   0.000000
   10       31.391704     31.575338   0.000000   0.000000
   11       33.130989     33.246373   0.000000   0.000000
   12       39.975600     40.848333   0.000000   0.000000
 
  0.1250000E+00  0.1250000E+00  0.1250000E+00  0.4629630E-02
    1        0.547986      0.831737   1.000000   1.000000
    2        2.610089      4.406690   1.000000   1.000000
    3        2.610089      4.406690   1.000000   1.000000
    4        4.581663      7.274614   1.000000   0.000000
    5        4.581663      7.274614   1.000000   0.000000
    6        5.653393      7.698317   0.385477   0.000000
    7       21.577567     22.094755   0.000000   0.000000
    8       21.577567     22.094755   0.000000   0.000000
    9       23.692320     24.451813   0.000000   0.000000
   10       33.944642     33.657669   0.000000   0.000000
   11       38.421603     38.719616   0.000000   0.000000
   12       38.421603     38.719616   0.000000   0.000000
 
  0.2083333E+00  0.1250000E+00  0.1250000E+00  0.1388889E-01
    1        1.481256      2.081888   1.000000   1.000000
    2        2.397951      4.124668   1.000000   1.000000
    3        2.620598      4.210918   1.000000   1.000000
    4        4.617318      7.284190   1.000000   0.000000
    5        4.694095      7.445011   1.000000   0.000000
    6        6.852887      8.751543  -0.025697   0.000000
    7       18.212544     18.947935   0.000000   0.000000
    8       20.416433     20.955865   0.000000   0.000000
    9       21.740237     22.424809   0.000000   0.000000
   10       34.812902     34.653744   0.000000   0.000000
   11       38.802720     39.151903   0.000000   0.000000
   12       39.603491     39.784107   0.000000   0.000000
 
  0.2916667E+00  0.1250000E+00  0.1250000E+00  0.1388889E-01
    1        1.614451      2.816835   1.000000   1.000000
    2        2.269778      3.950029   1.000000   1.000000
    3        3.286811      4.487116   1.000000   1.001613
    4        4.681021      7.337184   1.000000   0.000000
    5        4.751934      7.543133   1.000000   0.000000
    6        8.406714      9.960012  -0.000032   0.000000
    7       14.922287     15.898071   0.000000   0.000000
    8       19.683018     20.225614   0.000000   0.000000
    9       20.737452     21.381337   0.000000   0.000000
   10       34.805404     34.792228   0.000000   0.000000
   11       38.966175     39.382597   0.000000   0.000000
   12       41.344860     41.493447   0.000000   0.000000
 
  0.3750000E+00  0.1250000E+00  0.1250000E+00  0.6944444E-02
    1        1.570469      2.930968   1.000000   1.000000
    2        2.227296      3.891295   1.000000   1.000000
    3        3.643501      4.819009   1.000000   1.006347
    4        4.710053      7.364375   1.000000   0.000000
    5        4.769252      7.575062   1.000000   0.000000
    6        9.619438     10.824289   0.000000   0.000000
    7       13.078782     14.306820   0.000000   0.000000
    8       19.432556     19.974195   0.000000   0.000000
    9       20.401426     21.030338   0.000000   0.000000
   10       34.731723     34.761409   0.000000   0.000000
   11       39.085838     39.573322   0.000000   0.000000
   12       41.110496     41.130208   0.000000   0.000000
 
 -0.1250000E+00  0.1250000E+00  0.1250000E+00  0.3472222E-02
    1       -1.456349     -1.299370   1.000000   1.000000
    2        3.371520      5.318427   1.000000   1.000000
    3        3.371522      5.318439   1.000000   1.000000
    4        3.675488      5.700855   1.000000   0.005965
    5        4.031089      6.604231   1.000000   0.000000
    6        4.780020      7.548518   1.000000   0.000000
    7       26.359222     26.462557   0.000000   0.000000
    8       28.185163     28.536088   0.000000   0.000000
    9       28.185167     28.536093   0.000000   0.000000
   10       29.998030     30.406065   0.000000   0.000000
   11       35.073350     35.481205   0.000000   0.000000
   12       35.073352     35.481216   0.000000   0.000000
 
  0.2083333E+00  0.2083333E+00  0.1250000E+00  0.1388889E-01
    1        2.004064      3.079617   1.000000   1.000000
    2        2.328830      3.941177   1.000000   1.000000
    3        2.649611      4.044293   1.000000   1.000000
    4        4.686236      7.386925   1.000000   0.000000
    5        4.757660      7.524728   1.000000   0.000000
    6        8.496173     10.102728   0.000000   0.000000
    7       16.848072     17.632062   0.000000   0.000000
    8       17.604846     18.319180   0.000000   0.000000
    9       20.167351     20.793889   0.000000   0.000000
   10       36.639814     36.492775   0.000000   0.000000
   11       39.704375     39.869584   0.000000   0.000000
   12       41.413839     41.559167   0.000000   0.000000
 
  0.2916667E+00  0.2083333E+00  0.1250000E+00  0.2777778E-01
    1        1.972746      3.387319   1.000000   1.000000
    2        2.302172      3.868687   1.000000   1.000000
    3        3.010881      4.290974   1.000000   1.000000
    4        4.739119      7.448465   1.000000   0.000000
    5        4.788627      7.569213   1.000000   0.000000
    6       10.501577     11.730085   0.000000   0.000000
    7       14.087504     15.082510   0.000000   0.000000
    8       16.785403     17.520129   0.000000   0.000000
    9       19.600845     20.218319   0.000000   0.000000
   10       37.202610     37.151494   0.000000   0.000000
   11       40.308283     40.338403   0.000000   0.000000
   12       42.412828     42.746712   0.000000   0.000000
 
 -0.2083333E+00  0.2083333E+00  0.1250000E+00  0.1388889E-01
    1       -0.503878     -0.297287   1.000000   1.000000
    2        3.241007      5.156381   1.000000   1.000000
    3        3.282826      5.237961   1.000000   1.000000
    4        3.861654      6.202307   1.000000  -0.000771
    5        4.133643      6.283548   1.000000   0.000000
    6        4.928163      7.674070   1.011368   0.000000
    7       23.599665     24.069004   0.000000   0.000000
    8       26.317059     26.607394   0.000000   0.000000
    9       26.464120     27.000176   0.000000   0.000000
   10       29.641200     30.053594   0.000000   0.000000
   11       34.516291     34.924678   0.000000   0.000000
   12       35.486023     35.817202   0.000000   0.000000
 
  0.2916667E+00  0.2916667E+00  0.1250000E+00  0.4629630E-02
    1        2.045182      3.570666   1.000000   1.000000
    2        2.638642      4.044735   1.000000   1.000000
    3        2.638646      4.044744   1.000000   1.000000
    4        4.782218      7.531801   1.000000   0.000000
    5        4.782219      7.531802   1.000000   0.000000
    6       12.835823     13.838107   0.000000   0.000000
    7       12.835826     13.838118   0.000000   0.000000
    8       15.019310     15.908184   0.000000   0.000000
    9       19.353504     19.976845   0.000000   0.000000
   10       39.037708     39.001304   0.000000   0.000000
   11       39.037713     39.001305   0.000000   0.000000
   12       44.674819     45.099328   0.000000   0.000000
 
 -0.2916667E+00  0.2916667E+00  0.1250000E+00  0.1388889E-01
    1        0.550348      0.966999   1.000000   1.000000
    2        3.011290      4.881513   1.000000   1.000000