Automatically generated mesh
      68
Reciprocal lattice
    0.04166666666667    0.04166666666667    0.04166666666667             8
    0.12500000000000    0.04166666666667    0.04166666666667            24
    0.20833333333333    0.04166666666667    0.04166666666667            24
    0.29166666666667    0.04166666666667    0.04166666666667            24
    0.37500000000000    0.04166666666667    0.04166666666667            24
    0.45833333333333    0.04166666666667    0.04166666666667            12
   -0.04166666666667    0.04166666666667    0.04166666666667             6
    0.12500000000000    0.12500000000000    0.04166666666667            24
    0.20833333333333    0.12500000000000    0.04166666666667            48
    0.29166666666667    0.12500000000000    0.04166666666667            48
    0.37500000000000    0.12500000000000    0.04166666666667            48
   -0.12500000000000    0.12500000000000    0.04166666666667            24
    0.20833333333333    0.20833333333333    0.04166666666667            24
    0.29166666666667    0.20833333333333    0.04166666666667            48
    0.37500000000000    0.20833333333333    0.04166666666667            24
   -0.20833333333333    0.20833333333333    0.04166666666667            24
   -0.12500000000000    0.20833333333333    0.04166666666667            24
    0.29166666666667    0.29166666666667    0.04166666666667            24
   -0.29166666666667    0.29166666666667    0.04166666666667            24
   -0.20833333333333    0.29166666666667    0.04166666666667            48
   -0.37500000000000    0.37500000000000    0.04166666666667            24
   -0.29166666666667    0.37500000000000    0.04166666666667            48
   -0.20833333333333    0.37500000000000    0.04166666666667            24
   -0.45833333333333    0.45833333333333    0.04166666666667            24
   -0.37500000000000    0.45833333333333    0.04166666666667            48
   -0.29166666666667    0.45833333333333    0.04166666666667            48
   -0.45833333333333   -0.45833333333333    0.04166666666667            24
   -0.37500000000000   -0.45833333333333    0.04166666666667            48
   -0.29166666666667   -0.45833333333333    0.04166666666667            24
   -0.37500000000000   -0.37500000000000    0.04166666666667            24
    0.12500000000000    0.12500000000000    0.12500000000000             8
    0.20833333333333    0.12500000000000    0.12500000000000            24
    0.29166666666667    0.12500000000000    0.12500000000000            24
    0.37500000000000    0.12500000000000    0.12500000000000            12
   -0.12500000000000    0.12500000000000    0.12500000000000             6
    0.20833333333333    0.20833333333333    0.12500000000000            24
    0.29166666666667    0.20833333333333    0.12500000000000            48
   -0.20833333333333    0.20833333333333    0.12500000000000            24
    0.29166666666667    0.29166666666667    0.12500000000000             8
   -0.29166666666667    0.29166666666667    0.12500000000000            24
   -0.20833333333333    0.29166666666667    0.12500000000000            24
   -0.37500000000000    0.37500000000000    0.12500000000000            24
   -0.29166666666667    0.37500000000000    0.12500000000000            48
   -0.45833333333333    0.45833333333333    0.12500000000000            24
   -0.37500000000000    0.45833333333333    0.12500000000000            48
   -0.29166666666667    0.45833333333333    0.12500000000000            24
   -0.45833333333333   -0.45833333333333    0.12500000000000            24
   -0.37500000000000   -0.45833333333333    0.12500000000000            48
   -0.37500000000000   -0.37500000000000    0.12500000000000             8
    0.20833333333333    0.20833333333333    0.20833333333333             8
    0.29166666666667    0.20833333333333    0.20833333333333            12
   -0.20833333333333    0.20833333333333    0.20833333333333             6
   -0.29166666666667    0.29166666666667    0.20833333333333            24
   -0.37500000000000    0.37500000000000    0.20833333333333            24
   -0.29166666666667    0.37500000000000    0.20833333333333            24
   -0.45833333333333    0.45833333333333    0.20833333333333            24
   -0.37500000000000    0.45833333333333    0.20833333333333            48
   -0.45833333333333   -0.45833333333333    0.20833333333333            24
   -0.37500000000000   -0.45833333333333    0.20833333333333            24
   -0.29166666666667    0.29166666666667    0.29166666666667             6
   -0.37500000000000    0.37500000000000    0.29166666666667            24
   -0.45833333333333    0.45833333333333    0.29166666666667            24
   -0.37500000000000    0.45833333333333    0.29166666666667            24
   -0.45833333333333   -0.45833333333333    0.29166666666667            24
   -0.37500000000000    0.37500000000000    0.37500000000000             6
   -0.45833333333333    0.45833333333333    0.37500000000000            24
   -0.45833333333333   -0.45833333333333    0.37500000000000             8
   -0.45833333333333    0.45833333333333    0.45833333333333             6
Tetrahedra
      1949    0.00009645061728
         4         1         2         2         8
         8         2         2         8         8
         4         2         8         8        31
         4         2         3         8         9
         4         2         8         8         9
        12         8         8         9        31
         8         3         8         9         9
         8         8         9         9        32
         8         8         9        31        32
         4         3         4         9        10
         4         3         9         9        10
        12         9         9        10        32
         8         4         9        10        10
         4         9        10        10        33
         4         9        10        32        33
         4         4         5        10        11
         4         4        10        10        11
         8        10        10        11        33
         8         5        10        11        11
         4        10        11        11        34
         4        10        11        33        34
         4         5         6        11        11
         4         5        11        11        11
         8        11        11        11        34
         8         6        11        11        11
         4        11        11        11        33
         4        11        11        33        34
         4         5         6        10        11
         4         6        10        11        11
         8        10        11        11        33
         8         5        10        10        11
         4        10        10        11        32
         4        10        11        32        33
         4         4         5         9        10
         4         5         9        10        10
         8         9        10        10        32
         8         4         9         9        10
         4         9         9        10        31
         4         9        10        31        32
         4         3         4         8         9
         4         4         8         9         9
        16         8         9         9        31
         8         3         8         8         9
         4         8         8         8         9
         4         2         2         3         8
         8         2         3         8         8
         4         2         8         8         8
         4         2         2         2         8
         8         2         2         8        17
         4         2         8         8        17
        16         1         2         2        12
         4         2         2         2        12
        12         2         2        12        17
        16         1         2        12        12
         4         2        12        12        35
         4         2        12        17        35
        20         1         7        12        12
         4         1        12        12        12
         4        12        12        12        35
         8         7        12        12        12
         4        12        12        12        17
         4        12        12        17        35
         8         1         2         7        12
         8         2         7        12        12
         8         2        12        12        17
         4         2         2         8        12
         4         2         8        12        17
         4         8         9        13        31
        12         9        13        31        32
         4        13        31        32        36
         4         9        10        14        32
         4         9        13        14        32
         8        13        14        32        36
        12        10        14        32        33
         4        14        32        33        37
         4        14        32        36        37
         4        10        11        15        33
         4        10        14        15        33
         8        14        15        33        37
        16        11        15        33        34
        16        15        33        34        37
         8        15        33        37        37
         8        11        11        14        34
        12        11        14        15        34
        12        14        15        34        37
        12        11        14        33        34
         4        14        33        34        36
         4        14        34        36        37
         4        10        11        13        33
         4        11        13        14        33
        12        13        14        33        36
        12        10        13        32        33
         4        13        32        32        33
        16        13        32        33        36
        16         9        10        13        32
         8         9        13        32        32
        16         9         9        31        32
         4         9         9        32        32
        12         3         8         9        31
         8         3         9         9        31
         8         3         8         8        31
         4         3         8        20        31
         4         3         9        20        31
         4         2         8         8        16
         4         3         8         8        16
         8         3         8        16        20
        12         2         8        16        17
         4         8        16        17        38
         4         8        16        20        38
         4         2        12        17        17
         4         2        16        17        17
         4        16        17        17        38
         8        12        17        17        35
         8        17        17        35        38
         4        17        17        38        38
         4        12        12        16        35
        12        12        16        17        35
        12        16        17        35        38
         4        16        17        20        35
         4        16        20        35        38
         4         2         3        12        17
         4         3        12        16        17
         8         3        16        17        20
        16         2         3         8        17
         4         3         8         9        17
         4         3         9        17        20
         4        13        14        18        36
         8        14        18        36        37
         4        18        36        37        39
        16        14        15        18        37
         4        14        18        18        37
        12        18        18        37        39
         8        15        18        37        37
         4        18        37        37        37
        16        18        37        37        39
         4        14        14        15        37
        12        14        18        37        37
         8        14        14        36        37
        16        14        33        36        37
         4        14        33        37        37
        12        10        13        14        36
         4        10        14        14        36
         8        10        14        33        36
        12        10        13        32        36
         4        10        10        32        36
         4        10        10        33        36
         4         4         9        13        32
         4         4        10        13        32
         4         4        10        10        32
         4         4         9         9        32
         4         4         9        22        32
         4         4        10        22        32
         4         3         9         9        19
         4         4         9         9        19
         8         4         9        19        22
         8         3         9        19        20
         4         9        19        20        40
         4         9        19        22        40
         4         3        16        20        20
         4         3        19        20        20
         4        19        20        20        40
         8        16        20        20        38
        12        20        20        38        41
         4        20        20        40        41
         8        16        17        20        38
         8        17        20        38        38
         4        20        38        38        40
         8        20        38        40        41
         4        16        17        19        38
         4        17        19        20        38
         8        19        20        38        40
         8        16        19        20        38
         4        19        20        22        38
         4        19        22        38        40
         4         3         4        16        20
         4         4        16        19        20
         8         4        19        20        22
        12         3         4         9        20
         4         4         9        10        20
         4         4        10        20        22
         8        15        18        18        39
        12        15        18        37        39
         4        15        34        37        39
         4        11        14        18        37
         4        11        15        18        37
         8        11        15        34        37
         8        11        14        33        37
         4        11        11        33        37
         8        11        11        34        37
         4         5        10        14        33
         4         5        11        14        33
         4         5        11        11        33
         4         5        10        10        33
         4         5        10        25        33
         4         5        11        25        33
         4         4        10        10        21
         4         5        10        10        21
         8         5        10        21        25
         8         4        10        21        22
         4        10        21        22        42
         4        10        21        25        42
         4         4        19        22        22
         4         4        21        22        22
         4        21        22        22        42
         4        19        22        22        40
         4        22        22        40        43
         4        22        22        42        43
         4        19        20        23        40
         4        19        22        23        40
         8        22        23        40        43
        12        20        23        40        41
        12        23        40        41        43
         4        23        40        43        43
         4        20        20        22        41
        12        20        22        23        41
        12        22        23        41        43
         8        20        22        40        41
         4        22        40        41        42
         4        22        41        42        43
         4        19        20        21        40
         4        20        21        22        40
         8        21        22        40        42
         8        19        21        22        40
         4        21        22        25        40
         4        21        25        40        42
         4         4         5        19        22
         4         5        19        21        22
         8         5        21        22        25
        12         4         5        10        22
         4         5        10        11        22
         4         5        11        22        25
         4         6        11        15        34
         8         6        11        11        34
         4         6        11        27        34
         4         5        11        11        24
         8         6        11        11        24
         8         6        11        24        27
         8         5        11        24        25
         4        11        24        25        44
         4        11        24        27        44
         4         5        21        25        25
         4         5        24        25        25
         4        24        25        25        44
         4        21        25        25        42
         4        25        25        42        45
         4        25        25        44        45
         4        21        22        26        42
         4        21        25        26        42
         8        25        26        42        45
         8        22        26        42        43
         4        26        42        43        46
         4        26        42        45        46
         8        22        23        26        43
         4        22        26        26        43
         8        26        26        43        46
         8        23        26        43        43
         4        26        43        43        45
         8        26        43        45        46
         4        22        23        25        43
         4        23        25        26        43
         8        25        26        43        45
         8        22        25        42        43
         4        25        42        43        44
         4        25        43        44        45
         4        21        22        24        42
         4        22        24        25        42
         8        24        25        42        44
         8        21        24        25        42
         4        24        25        27        42
         4        24        27        42        44
         4         5         6        21        25
         4         6        21        24        25
        12         6        24        25        27
        12         5         6        11        25
         8         6        11        11        25
        12         6        11        25        27
         4         6        24        27        27
         4        24        27        27        44
         4        27        27        44        47
         4        24        25        28        44
         4        24        27        28        44
         8        27        28        44        47
         8        25        28        44        45
         4        28        44        45        48
         4        28        44        47        48
         4        25        26        29        45
         4        25        28        29        45
         8        28        29        45        48
        12        26        29        45        46
        12        29        45        46        48
         4        29        45        48        48
         4        26        26        28        46
        12        26        28        29        46
        12        28        29        46        48
         8        26        28        45        46
         4        28        45        46        47
         4        28        46        47        48
         4        25        26        27        45
         4        26        27        28        45
        12        27        28        45        47
         8        25        27        44        45
         4        27        44        44        45
        12        27        44        45        47
         4        24        24        25        44
         8        24        25        27        44
         8        24        27        44        44
         8        24        24        27        44
         4        24        25        44        44
        16         5         6        24        27
         8         5        24        24        27
         8         5        24        25        27
        16         5         6        11        27
         4         5        10        11        27
         4         5        10        25        27
         4        27        28        30        47
         8        28        30        47        48
         4        30        47        48        49
        16        28        29        30        48
         4        28        30        30        48
        12        30        30        48        49
         8        29        30        48        48
         4        30        48        48        48
        16        30        48        48        49
         4        28        28        29        48
        12        28        30        48        48
         8        28        28        47        48
         8        28        45        47        48
         4        28        45        48        48
        12        25        27        28        47
         4        25        28        28        47
         8        25        28        45        47
        12        25        27        44        47
         4        25        42        44        47
         4        25        42        45        47
         4        21        24        27        44
         4        21        25        27        44
         8        21        25        42        44
         8        21        24        25        44
         4        21        22        25        44
         4        21        22        42        44
         4         4         5        24        25
         4         4        21        24        25
         8         4        21        22        25
        12         4         5        10        25
         4         4         9        10        25
         4         4         9        22        25
         8        29        30        30        49
        12        29        30        48        49
         4        29        46        48        49
         4        26        28        30        48
         4        26        29        30        48
         8        26        29        46        48
         8        26        28        45        48
         4        26        43        45        48
         4        26        43        46        48
         4        22        25        28        45
         4        22        26        28        45
         8        22        26        43        45
         8        22        25        42        45
         4        22        40        42        45
         4        22        40        43        45
         4        19        21        25        42
         4        19        22        25        42
         8        19        22        40        42
         8        19        21        22        42
         4        19        20        22        42
         4        19        20        40        42
         4         3         4        21        22
         4         3        19        21        22
         8         3        19        20        22
        12         3         4         9        22
         4         3         8         9        22
         4         3         8        20        22
         4        23        26        29        46
         8        23        26        43        46
         4        23        41        43        46
         4        20        22        26        43
         4        20        23        26        43
         8        20        23        41        43
         8        20        22        40        43
         4        20        38        40        43
         4        20        38        41        43
         4        16        19        22        40
         4        16        20        22        40
         8        16        20        38        40
         8        16        19        20        40
         4        16        17        20        40
         4        16        17        38        40
         4         2         3        19        20
         4         2        16        19        20
         8         2        16        17        20
        12         2         3         8        20
         4         2         2         8        20
         4         2         2        17        20
         4        17        20        23        41
         8        17        20        38        41
         4        17        35        38        41
         4        12        16        20        38
         4        12        17        20        38
         8        12        17        35        38
         8        12        16        17        38
         4        12        12        17        38
         4        12        12        35        38
         4         1         2        16        17
         4         1        12        16        17
         8         1        12        12        17
         8         1         2         2        17
        12         1         2        12        17
         4         7        12        17        35
         4         7        12        12        35
         4         1         7        12        35
         4         7         7        12        12
        12         1         7         7        12
         6         1         1         7         7
         8         1         1         7        12
         4         1         1         2        12
         4         2         3         8        31
         4         3         9        31        32
        12         9        31        32        32
         8         9         9        13        32
         4         9        13        32        36
         4         9        32        32        36
         4         9        10        13        33
         4         9        13        32        33
         8        10        13        14        33
         4        13        14        33        37
         4        13        33        36        37
         4        10        11        14        34
         4        10        14        33        34
        12        14        33        34        37
         8        14        34        37        37
         8        11        11        15        33
         8        11        14        15        33
         4        14        15        33        36
         4        15        33        36        37
         4        10        11        14        32
         4        11        14        32        33
        12        14        32        33        36
         8        10        13        14        32
         4        13        14        32        32
         4        14        32        32        36
         4         9        10        13        31
         4        10        13        31        32
         8        13        31        32        32
         8         9         9        13        31
         4         8         8         9         9
        16         3         8         9        20
        12         8         9         9        20
         4         3         8         8        17
        12         3         8        17        20
        12         2         3        16        17
         4         3        16        17        38
         4         3        17        20        38
         4         2        12        16        35
         4         2        16        17        35
         4        16        35        38        38
         4        12        12        17        17
         4        12        16        17        17
         4        16        17        17        20
         4        17        17        20        38
         4         2         8        12        16
         4         8        12        16        17
        12         8        16        17        20
         8         2         3         8        16
         4         3         8         9        16
         4         8         9        16        20
         4        31        32        32        36
         8        32        32        36        36
         4        32        36        36        50
         4        32        33        36        37
         4        32        36        36        37
        12        36        36        37        50
         8        33        36        37        37
         8        36        37        37        51
         8        36        37        50        51
         4        33        34        37        37
         4        33        37        37        37
        16        37        37        37        51
         8        34        37        37        37
         4        37        37        37        50
        20        37        37        50        51
         4        33        34        36        37
         4        34        36        37        37
        16        36        37        37        50
         8        33        36        36        37
         4        36        36        36        37