 vasp.5.4.1 24Jun15 (build Jul 19 2016 16:50:41) complex                        
  
 executed on           IFC91_ompi date 2019.10.17  11:06:00
 running on    4 total cores
 distrk:  each k-point on    4 cores,    1 groups
 distr:  one band on NCORES_PER_BAND=   1 cores,    4 groups


--------------------------------------------------------------------------------------------------------


 INCAR:
 POTCAR:    PAW_PBE Fe 06Sep2000                  
 POTCAR:    PAW_PBE Fe 06Sep2000                  
   VRHFIN =Fe:  d7 s1                                                           
   LEXCH  = PE                                                                  
   EATOM  =   594.3153 eV,   43.6809 Ry                                         
                                                                                
   TITEL  = PAW_PBE Fe 06Sep2000                                                
   LULTRA =        F    use ultrasoft PP ?                                      
   IUNSCR =        1    unscreen: 0-lin 1-nonlin 2-no                           
   RPACOR =    2.000    partial core radius                                     
   POMASS =   55.847; ZVAL   =    8.000    mass and valenz                      
   RCORE  =    2.300    outmost cutoff radius                                   
   RWIGS  =    2.460; RWIGS  =    1.302    wigner-seitz radius (au A)           
   ENMAX  =  267.882; ENMIN  =  200.911 eV                                      
   RCLOC  =    1.701    cutoff for local pot                                    
   LCOR   =        T    correct aug charges                                     
   LPAW   =        T    paw PP                                                  
   EAUG   =  511.368                                                            
   DEXC   =    0.000                                                            
   RMAX   =    2.356    core radius for proj-oper                               
   RAUG   =    1.300    factor for augmentation sphere                          
   RDEP   =    2.442    radius for radial grids                                 
   RDEPT  =    1.890    core radius for aug-charge                              
                                                                                
   Atomic configuration                                                         
    9 entries                                                                   
     n  l   j            E        occ.                                          
     1  0  0.50     -6993.8440   2.0000                                         
     2  0  0.50      -814.6047   2.0000                                         
     2  1  1.50      -693.3689   6.0000                                         
     3  0  0.50       -89.4732   2.0000                                         
     3  1  1.50       -55.6373   6.0000                                         
     3  2  2.50        -3.8151   7.0000                                         
     4  0  0.50        -4.2551   1.0000                                         
     4  1  1.50        -3.4015   0.0000                                         
     4  3  2.50        -1.3606   0.0000                                         
   Description                                                                  
     l       E           TYP  RCUT    TYP  RCUT                                 
     2     -3.8151135     23  2.300                                             
     2     -5.1756961     23  2.300                                             
     0     -4.2550963     23  2.300                                             
     0      7.2035603     23  2.300                                             
     1     -2.7211652     23  2.300                                             
     1     18.4316424     23  2.300                                             
  local pseudopotential read in
  partial core-charges read in
  partial kinetic energy density read in
  atomic valenz-charges read in
  non local Contribution for L=           2  read in
    real space projection operators read in
  non local Contribution for L=           2  read in
    real space projection operators read in
  non local Contribution for L=           0  read in
    real space projection operators read in
  non local Contribution for L=           0  read in
    real space projection operators read in
  non local Contribution for L=           1  read in
    real space projection operators read in
  non local Contribution for L=           1  read in
    real space projection operators read in
    PAW grid and wavefunctions read in
 
   number of l-projection  operators is LMAX  =           6
   number of lm-projection operators is LMMAX =          18
 
  PAW_PBE Fe 06Sep2000                  :
 energy of atom  1       EATOM= -594.3153
 kinetic energy error for atom=    0.0269 (will be added to EATOM!!)
 
 
 POSCAR: Fe BCC                                  
  positions in direct lattice
  No initial velocities read in
 exchange correlation table for  LEXCH =        8
   RHO(1)=    0.500       N(1)  =     2000
   RHO(2)=  100.500       N(2)  =     4000
 


--------------------------------------------------------------------------------------------------------


 ion  position               nearest neighbor table
   1  0.000  0.000  0.000-
 
  LATTYP: Found a body centered cubic cell.
 ALAT       =     2.8500000000
  
  Lattice vectors:
  
 A1 = (  -1.4250000000,   1.4250000000,   1.4250000000)
 A2 = (   1.4250000000,  -1.4250000000,   1.4250000000)
 A3 = (   1.4250000000,   1.4250000000,  -1.4250000000)


Analysis of symmetry for initial positions (statically):
=====================================================================
 Subroutine PRICEL returns:
 Original cell was already a primitive cell.
 

 Routine SETGRP: Setting up the symmetry group for a 
 body centered cubic supercell.


 Subroutine GETGRP returns: Found 48 space group operations
 (whereof 48 operations were pure point group operations)
 out of a pool of 48 trial point group operations.


The static configuration has the point symmetry O_h .


Analysis of symmetry for dynamics (positions and initial velocities):
=====================================================================
 Subroutine PRICEL returns:
 Original cell was already a primitive cell.
 

 Routine SETGRP: Setting up the symmetry group for a 
 body centered cubic supercell.


 Subroutine GETGRP returns: Found 48 space group operations
 (whereof 48 operations were pure point group operations)
 out of a pool of 48 trial point group operations.


The dynamic configuration has the point symmetry O_h .


Analysis of structural, dynamic, and magnetic symmetry:
=====================================================================
 Subroutine PRICEL returns:
 Original cell was already a primitive cell.
 

 Routine SETGRP: Setting up the symmetry group for a 
 body centered cubic supercell.


 Subroutine GETGRP returns: Found 48 space group operations
 (whereof 48 operations were pure point group operations)
 out of a pool of 48 trial point group operations.


The magnetic configuration has the point symmetry O_h .


 Subroutine INISYM returns: Found 48 space group operations
 (whereof 48 operations are pure point group operations),
 and found     1 'primitive' translations

 
 
 KPOINTS: K-Points                                

Automatic generation of k-mesh.
Space group operators:
 irot       det(A)        alpha          n_x          n_y          n_z        tau_x        tau_y        tau_z
    1     1.000000     0.000000     1.000000     0.000000     0.000000     0.000000     0.000000     0.000000
    2    -1.000000     0.000000     1.000000     0.000000     0.000000     0.000000     0.000000     0.000000
    3     1.000000   120.000000    -0.577350    -0.577350    -0.577350     0.000000     0.000000     0.000000
    4    -1.000000   120.000000    -0.577350    -0.577350    -0.577350     0.000000     0.000000     0.000000
    5     1.000000   120.000000     0.577350     0.577350     0.577350     0.000000     0.000000     0.000000
    6    -1.000000   120.000000     0.577350     0.577350     0.577350     0.000000     0.000000     0.000000
    7     1.000000    90.000000     0.000000     0.000000    -1.000000     0.000000     0.000000     0.000000
    8    -1.000000    90.000000     0.000000     0.000000    -1.000000     0.000000     0.000000     0.000000
    9     1.000000   180.000000     0.000000     0.707107     0.707107     0.000000     0.000000     0.000000
   10    -1.000000   180.000000     0.000000     0.707107     0.707107     0.000000     0.000000     0.000000
   11     1.000000    90.000000     0.000000     1.000000     0.000000     0.000000     0.000000     0.000000
   12    -1.000000    90.000000     0.000000     1.000000     0.000000     0.000000     0.000000     0.000000
   13     1.000000   179.999999     0.000000     0.000000     1.000000     0.000000     0.000000     0.000000
   14    -1.000000   179.999999     0.000000     0.000000     1.000000     0.000000     0.000000     0.000000
   15     1.000000   120.000000    -0.577350     0.577350     0.577350     0.000000     0.000000     0.000000
   16    -1.000000   120.000000    -0.577350     0.577350     0.577350     0.000000     0.000000     0.000000
   17     1.000000   120.000000    -0.577350     0.577350    -0.577350     0.000000     0.000000     0.000000
   18    -1.000000   120.000000    -0.577350     0.577350    -0.577350     0.000000     0.000000     0.000000
   19     1.000000    90.000000     0.000000     0.000000     1.000000     0.000000     0.000000     0.000000
   20    -1.000000    90.000000     0.000000     0.000000     1.000000     0.000000     0.000000     0.000000
   21     1.000000    90.000000    -1.000000     0.000000     0.000000     0.000000     0.000000     0.000000
   22    -1.000000    90.000000    -1.000000     0.000000     0.000000     0.000000     0.000000     0.000000
   23     1.000000   180.000000     0.707107     0.000000     0.707107     0.000000     0.000000     0.000000
   24    -1.000000   180.000000     0.707107     0.000000     0.707107     0.000000     0.000000     0.000000
   25     1.000000   120.000000     0.577350    -0.577350     0.577350     0.000000     0.000000     0.000000
   26    -1.000000   120.000000     0.577350    -0.577350     0.577350     0.000000     0.000000     0.000000
   27     1.000000   120.000000    -0.577350    -0.577350     0.577350     0.000000     0.000000     0.000000
   28    -1.000000   120.000000    -0.577350    -0.577350     0.577350     0.000000     0.000000     0.000000
   29     1.000000   180.000000     1.000000     0.000000     0.000000     0.000000     0.000000     0.000000
   30    -1.000000   180.000000     1.000000     0.000000     0.000000     0.000000     0.000000     0.000000
   31     1.000000    90.000000     0.000000    -1.000000     0.000000     0.000000     0.000000     0.000000
   32    -1.000000    90.000000     0.000000    -1.000000     0.000000     0.000000     0.000000     0.000000
   33     1.000000   180.000000     0.707107     0.707107     0.000000     0.000000     0.000000     0.000000
   34    -1.000000   180.000000     0.707107     0.707107     0.000000     0.000000     0.000000     0.000000
   35     1.000000    90.000000     1.000000     0.000000     0.000000     0.000000     0.000000     0.000000
   36    -1.000000    90.000000     1.000000     0.000000     0.000000     0.000000     0.000000     0.000000
   37     1.000000   120.000000     0.577350    -0.577350    -0.577350     0.000000     0.000000     0.000000
   38    -1.000000   120.000000     0.577350    -0.577350    -0.577350     0.000000     0.000000     0.000000
   39     1.000000   180.000000     0.000000     1.000000     0.000000     0.000000     0.000000     0.000000
   40    -1.000000   180.000000     0.000000     1.000000     0.000000     0.000000     0.000000     0.000000
   41     1.000000   120.000000     0.577350     0.577350    -0.577350     0.000000     0.000000     0.000000
   42    -1.000000   120.000000     0.577350     0.577350    -0.577350     0.000000     0.000000     0.000000
   43     1.000000   180.000000     0.000000    -0.707107     0.707107     0.000000     0.000000     0.000000
   44    -1.000000   180.000000     0.000000    -0.707107     0.707107     0.000000     0.000000     0.000000
   45     1.000000   180.000000     0.707107    -0.707107     0.000000     0.000000     0.000000     0.000000
   46    -1.000000   180.000000     0.707107    -0.707107     0.000000     0.000000     0.000000     0.000000
   47     1.000000   180.000000     0.707107     0.000000    -0.707107     0.000000     0.000000     0.000000
   48    -1.000000   180.000000     0.707107     0.000000    -0.707107     0.000000     0.000000     0.000000
 
 Subroutine IBZKPT returns following result:
 ===========================================
 
 Found     68 irreducible k-points:
 
 Following reciprocal coordinates:
            Coordinates               Weight
  0.041667  0.041667  0.041667      8.000000
  0.125000  0.041667  0.041667     24.000000
  0.208333  0.041667  0.041667     24.000000
  0.291667  0.041667  0.041667     24.000000
  0.375000  0.041667  0.041667     24.000000
  0.458333  0.041667  0.041667     12.000000
 -0.041667  0.041667  0.041667      6.000000
  0.125000  0.125000  0.041667     24.000000
  0.208333  0.125000  0.041667     48.000000
  0.291667  0.125000  0.041667     48.000000
  0.375000  0.125000  0.041667     48.000000
 -0.125000  0.125000  0.041667     24.000000
  0.208333  0.208333  0.041667     24.000000
  0.291667  0.208333  0.041667     48.000000
  0.375000  0.208333  0.041667     24.000000
 -0.208333  0.208333  0.041667     24.000000
 -0.125000  0.208333  0.041667     24.000000
  0.291667  0.291667  0.041667     24.000000
 -0.291667  0.291667  0.041667     24.000000
 -0.208333  0.291667  0.041667     48.000000
 -0.375000  0.375000  0.041667     24.000000
 -0.291667  0.375000  0.041667     48.000000
 -0.208333  0.375000  0.041667     24.000000
 -0.458333  0.458333  0.041667     24.000000
 -0.375000  0.458333  0.041667     48.000000
 -0.291667  0.458333  0.041667     48.000000
 -0.458333 -0.458333  0.041667     24.000000
 -0.375000 -0.458333  0.041667     48.000000
 -0.291667 -0.458333  0.041667     24.000000
 -0.375000 -0.375000  0.041667     24.000000
  0.125000  0.125000  0.125000      8.000000
  0.208333  0.125000  0.125000     24.000000
  0.291667  0.125000  0.125000     24.000000
  0.375000  0.125000  0.125000     12.000000
 -0.125000  0.125000  0.125000      6.000000
  0.208333  0.208333  0.125000     24.000000
  0.291667  0.208333  0.125000     48.000000
 -0.208333  0.208333  0.125000     24.000000
  0.291667  0.291667  0.125000      8.000000
 -0.291667  0.291667  0.125000     24.000000
 -0.208333  0.291667  0.125000     24.000000
 -0.375000  0.375000  0.125000     24.000000
 -0.291667  0.375000  0.125000     48.000000
 -0.458333  0.458333  0.125000     24.000000
 -0.375000  0.458333  0.125000     48.000000
 -0.291667  0.458333  0.125000     24.000000
 -0.458333 -0.458333  0.125000     24.000000
 -0.375000 -0.458333  0.125000     48.000000
 -0.375000 -0.375000  0.125000      8.000000
  0.208333  0.208333  0.208333      8.000000
  0.291667  0.208333  0.208333     12.000000
 -0.208333  0.208333  0.208333      6.000000
 -0.291667  0.291667  0.208333     24.000000
 -0.375000  0.375000  0.208333     24.000000
 -0.291667  0.375000  0.208333     24.000000
 -0.458333  0.458333  0.208333     24.000000
 -0.375000  0.458333  0.208333     48.000000
 -0.458333 -0.458333  0.208333     24.000000
 -0.375000 -0.458333  0.208333     24.000000
 -0.291667  0.291667  0.291667      6.000000
 -0.375000  0.375000  0.291667     24.000000
 -0.458333  0.458333  0.291667     24.000000
 -0.375000  0.458333  0.291667     24.000000
 -0.458333 -0.458333  0.291667     24.000000
 -0.375000  0.375000  0.375000      6.000000
 -0.458333  0.458333  0.375000     24.000000
 -0.458333 -0.458333  0.375000      8.000000
 -0.458333  0.458333  0.458333      6.000000
 
 Following cartesian coordinates:
            Coordinates               Weight
  0.083333  0.083333  0.083333      8.000000
  0.083333  0.166667  0.166667     24.000000
  0.083333  0.250000  0.250000     24.000000
  0.083333  0.333333  0.333333     24.000000
  0.083333  0.416667  0.416667     24.000000
  0.083333  0.500000  0.500000     12.000000
  0.083333  0.000000  0.000000      6.000000
  0.166667  0.166667  0.250000     24.000000
  0.166667  0.250000  0.333333     48.000000
  0.166667  0.333333  0.416667     48.000000
  0.166667  0.416667  0.500000     48.000000
  0.166667 -0.083333  0.000000     24.000000
  0.250000  0.250000  0.416667     24.000000
  0.250000  0.333333  0.500000     48.000000
  0.250000  0.416667  0.583333     24.000000
  0.250000 -0.166667  0.000000     24.000000
  0.250000 -0.083333  0.083333     24.000000
  0.333333  0.333333  0.583333     24.000000
  0.333333 -0.250000  0.000000     24.000000
  0.333333 -0.166667  0.083333     48.000000
  0.416667 -0.333333  0.000000     24.000000
  0.416667 -0.250000  0.083333     48.000000
  0.416667 -0.166667  0.166667     24.000000
  0.500000 -0.416667  0.000000     24.000000
  0.500000 -0.333333  0.083333     48.000000
  0.500000 -0.250000  0.166667     48.000000
 -0.416667 -0.416667 -0.916667     24.000000
 -0.416667 -0.333333 -0.833333     48.000000
 -0.416667 -0.250000 -0.750000     24.000000
 -0.333333 -0.333333 -0.750000     24.000000
  0.250000  0.250000  0.250000      8.000000
  0.250000  0.333333  0.333333     24.000000
  0.250000  0.416667  0.416667     24.000000
  0.250000  0.500000  0.500000     12.000000
  0.250000  0.000000  0.000000      6.000000
  0.333333  0.333333  0.416667     24.000000
  0.333333  0.416667  0.500000     48.000000
  0.333333 -0.083333  0.000000     24.000000
  0.416667  0.416667  0.583333      8.000000
  0.416667 -0.166667  0.000000     24.000000
  0.416667 -0.083333  0.083333     24.000000
  0.500000 -0.250000  0.000000     24.000000
  0.500000 -0.166667  0.083333     48.000000
  0.583333 -0.333333  0.000000     24.000000
  0.583333 -0.250000  0.083333     48.000000
  0.583333 -0.166667  0.166667     24.000000
 -0.333333 -0.333333 -0.916667     24.000000
 -0.333333 -0.250000 -0.833333     48.000000
 -0.250000 -0.250000 -0.750000      8.000000
  0.416667  0.416667  0.416667      8.000000
  0.416667  0.500000  0.500000     12.000000
  0.416667  0.000000  0.000000      6.000000
  0.500000 -0.083333  0.000000     24.000000
  0.583333 -0.166667  0.000000     24.000000
  0.583333 -0.083333  0.083333     24.000000
  0.666667 -0.250000  0.000000     24.000000
  0.666667 -0.166667  0.083333     48.000000
 -0.250000 -0.250000 -0.916667     24.000000
 -0.250000 -0.166667 -0.833333     24.000000
  0.583333  0.000000  0.000000      6.000000
  0.666667 -0.083333  0.000000     24.000000
  0.750000 -0.166667  0.000000     24.000000
  0.750000 -0.083333  0.083333     24.000000
 -0.166667 -0.166667 -0.916667     24.000000
  0.750000  0.000000  0.000000      6.000000
  0.833333 -0.083333  0.000000     24.000000
 -0.083333 -0.083333 -0.916667      8.000000
  0.916667  0.000000  0.000000      6.000000
 
 TETIRR: Found   1949 inequivalent tetrahedra from    10368


--------------------------------------------------------------------------------------------------------




 Dimension of arrays:
   k-points           NKPTS =     68   k-points in BZ     NKDIM =     68   number of bands    NBANDS=     12
   number of dos      NEDOS =    301   number of ions     NIONS =      1
   non local maximal  LDIM  =      6   non local SUM 2l+1 LMDIM =     18
   total plane-waves  NPLWV =   2744
   max r-space proj   IRMAX =      1   max aug-charges    IRDMAX=   8643
   dimension x,y,z NGX =    14 NGY =   14 NGZ =   14
   dimension x,y,z NGXF=    28 NGYF=   28 NGZF=   28
   support grid    NGXF=    28 NGYF=   28 NGZF=   28
   ions per type =               1
 NGX,Y,Z   is equivalent  to a cutoff of   9.43,  9.43,  9.43 a.u.
 NGXF,Y,Z  is equivalent  to a cutoff of  18.86, 18.86, 18.86 a.u.


 I would recommend the setting:
   dimension x,y,z NGX =    14 NGY =   14 NGZ =   14
 SYSTEM =  Fe BCC                                  
 POSCAR =  Fe BCC                                  

 Startparameter for this run:
   NWRITE =      2    write-flag & timer
   PREC   = accura    normal or accurate (medium, high low for compatibility)
   ISTART =      0    job   : 0-new  1-cont  2-samecut
   ICHARG =      2    charge: 1-file 2-atom 10-const
   ISPIN  =      2    spin polarized calculation?
   LNONCOLLINEAR =      F non collinear calculations
   LSORBIT =      F    spin-orbit coupling
   INIWAV =      1    electr: 0-lowe 1-rand  2-diag
   LASPH  =      F    aspherical Exc in radial PAW
   METAGGA=      F    non-selfconsistent MetaGGA calc.

 Electronic Relaxation 1
   ENCUT  =  300.0 eV  22.05 Ry    4.70 a.u.   3.49  3.49  3.49*2*pi/ulx,y,z
   ENINI  =  300.0     initial cutoff
   ENAUG  =  511.4 eV  augmentation charge cutoff
   NELM   =     60;   NELMIN=  2; NELMDL= -5     # of ELM steps 
   EDIFF  = 0.1E-05   stopping-criterion for ELM
   LREAL  =      F    real-space projection
   NLSPLINE    = F    spline interpolate recip. space projectors
   LCOMPAT=      F    compatible to vasp.4.4
   GGA_COMPAT  = T    GGA compatible to vasp.4.4-vasp.4.6
   LMAXPAW     = -100 max onsite density
   LMAXMIX     =    2 max onsite mixed and CHGCAR
   VOSKOWN=      0    Vosko Wilk Nusair interpolation
   ROPT   =    0.00000
 Ionic relaxation
   EDIFFG = 0.1E-04   stopping-criterion for IOM
   NSW    =      0    number of steps for IOM
   NBLOCK =      1;   KBLOCK =      1    inner block; outer block 
   IBRION =     -1    ionic relax: 0-MD 1-quasi-New 2-CG
   NFREE  =      0    steps in history (QN), initial steepest desc. (CG)
   ISIF   =      2    stress and relaxation
   IWAVPR =     10    prediction:  0-non 1-charg 2-wave 3-comb
   ISYM   =      2    0-nonsym 1-usesym 2-fastsym
   LCORR  =      T    Harris-Foulkes like correction to forces

   POTIM  = 0.5000    time-step for ionic-motion
   TEIN   =    0.0    initial temperature
   TEBEG  =    0.0;   TEEND  =   0.0 temperature during run
   SMASS  =  -3.00    Nose mass-parameter (am)
   estimated Nose-frequenzy (Omega)   =  0.10E-29 period in steps =****** mass=  -0.139E-27a.u.
   SCALEE = 1.0000    scale energy and forces
   NPACO  =    256;   APACO  = 16.0  distance and # of slots for P.C.
   PSTRESS=    0.0 pullay stress

  Mass of Ions in am
   POMASS =  55.85
  Ionic Valenz
   ZVAL   =   8.00
  Atomic Wigner-Seitz radii
   RWIGS  =  -1.00
  virtual crystal weights 
   VCA    =   1.00
   NELECT =       8.0000    total number of electrons
   NUPDOWN=      -1.0000    fix difference up-down

 DOS related values:
   EMIN   =  10.00;   EMAX   =-10.00  energy-range for DOS
   EFERMI =   0.00
   ISMEAR =    -5;   SIGMA  =   0.20  broadening in eV -4-tet -1-fermi 0-gaus

 Electronic relaxation 2 (details)
   IALGO  =     38    algorithm
   LDIAG  =      T    sub-space diagonalisation (order eigenvalues)
   LSUBROT=      F    optimize rotation matrix (better conditioning)
   TURBO    =      0    0=normal 1=particle mesh
   IRESTART =      0    0=no restart 2=restart with 2 vectors
   NREBOOT  =      0    no. of reboots
   NMIN     =      0    reboot dimension
   EREF     =   0.00    reference energy to select bands
   IMIX   =      4    mixing-type and parameters
     AMIX     =   0.40;   BMIX     =  1.00
     AMIX_MAG =   1.60;   BMIX_MAG =  1.00
     AMIN     =   0.10
     WC   =   100.;   INIMIX=   1;  MIXPRE=   1;  MAXMIX= -45

 Intra band minimization:
   WEIMIN = 0.0000     energy-eigenvalue tresh-hold
   EBREAK =  0.21E-07  absolut break condition
   DEPER  =   0.30     relativ break condition  

   TIME   =   0.40     timestep for ELM

  volume/ion in A,a.u.               =      11.57        78.11
  Fermi-wavevector in a.u.,A,eV,Ry     =   1.447449  2.735282 28.505687  2.095109
  Thomas-Fermi vector in A             =   2.565403
 
 Write flags
   LWAVE  =      T    write WAVECAR
   LCHARG =      T    write CHGCAR
   LVTOT  =      F    write LOCPOT, total local potential
   LVHAR  =      F    write LOCPOT, Hartree potential only
   LELF   =      F    write electronic localiz. function (ELF)
   LORBIT =     11    0 simple, 1 ext, 2 COOP (PROOUT)


 Dipole corrections
   LMONO  =      F    monopole corrections only (constant potential shift)
   LDIPOL =      F    correct potential (dipole corrections)
   IDIPOL =      0    1-x, 2-y, 3-z, 4-all directions 
   EPSILON=  1.0000000 bulk dielectric constant

 Exchange correlation treatment:
   GGA     =    --    GGA type
   LEXCH   =     8    internal setting for exchange type
   VOSKOWN=      0    Vosko Wilk Nusair interpolation
   LHFCALC =     F    Hartree Fock is set to
   LHFONE  =     F    Hartree Fock one center treatment
   AEXX    =    0.0000 exact exchange contribution

 Linear response parameters
   LEPSILON=     F    determine dielectric tensor
   LRPA    =     F    only Hartree local field effects (RPA)
   LNABLA  =     F    use nabla operator in PAW spheres
   LVEL    =     F    velocity operator in full k-point grid
   LINTERFAST=   F  fast interpolation
   KINTER  =     0    interpolate to denser k-point grid
   CSHIFT  =0.1000    complex shift for real part using Kramers Kronig
   OMEGAMAX=  -1.0    maximum frequency
   DEG_THRESHOLD= 0.2000000E-02 threshold for treating states as degnerate
   RTIME   =    0.100 relaxation time in fs

 Orbital magnetization related:
   ORBITALMAG=     F  switch on orbital magnetization
   LCHIMAG   =     F  perturbation theory with respect to B field
   DQ        =  0.001000  dq finite difference perturbation B field



--------------------------------------------------------------------------------------------------------


 Static calculation
 charge density and potential will be updated during run
 spin polarized calculation
 Variant of blocked Davidson
 Davidson routine will perform the subspace rotation
 perform sub-space diagonalisation
    after iterative eigenvector-optimisation
 modified Broyden-mixing scheme, WC =      100.0
 initial mixing is a Kerker type mixing with AMIX =  0.4000 and BMIX =      1.0000
 Hartree-type preconditioning will be used
 using additional bands            8
 reciprocal scheme for non local part
 use partial core corrections
 calculate Harris-corrections to forces 
   (improved forces if not selfconsistent)
 use gradient corrections 
 use of overlap-Matrix (Vanderbilt PP)
 Fermi weights with tetrahedron method with Bloechl corrections


--------------------------------------------------------------------------------------------------------


  energy-cutoff  :      300.00
  volume of cell :       11.57
      direct lattice vectors                 reciprocal lattice vectors
    -1.425000000  1.425000000  1.425000000     0.000000000  0.350877193  0.350877193
     1.425000000 -1.425000000  1.425000000     0.350877193  0.000000000  0.350877193
     1.425000000  1.425000000 -1.425000000     0.350877193  0.350877193  0.000000000

  length of vectors
     2.468172401  2.468172401  2.468172401     0.496215285  0.496215285  0.496215285


 
 k-points in units of 2pi/SCALE and weight: K-Points                                
   0.08333333  0.08333333  0.08333333       0.005
   0.08333333  0.16666667  0.16666667       0.014
   0.08333333  0.25000000  0.25000000       0.014
   0.08333333  0.33333333  0.33333333       0.014
   0.08333333  0.41666667  0.41666667       0.014
   0.08333333  0.50000000  0.50000000       0.007
   0.08333333  0.00000000  0.00000000       0.003
   0.16666667  0.16666667  0.25000000       0.014
   0.16666667  0.25000000  0.33333333       0.028
   0.16666667  0.33333333  0.41666667       0.028
   0.16666667  0.41666667  0.50000000       0.028
   0.16666667 -0.08333333  0.00000000       0.014
   0.25000000  0.25000000  0.41666667       0.014
   0.25000000  0.33333333  0.50000000       0.028
   0.25000000  0.41666667  0.58333333       0.014
   0.25000000 -0.16666667  0.00000000       0.014
   0.25000000 -0.08333333  0.08333333       0.014
   0.33333333  0.33333333  0.58333333       0.014
   0.33333333 -0.25000000  0.00000000       0.014
   0.33333333 -0.16666667  0.08333333       0.028
   0.41666667 -0.33333333  0.00000000       0.014
   0.41666667 -0.25000000  0.08333333       0.028
   0.41666667 -0.16666667  0.16666667       0.014
   0.50000000 -0.41666667  0.00000000       0.014
   0.50000000 -0.33333333  0.08333333       0.028
   0.50000000 -0.25000000  0.16666667       0.028
  -0.41666667 -0.41666667 -0.91666667       0.014
  -0.41666667 -0.33333333 -0.83333333       0.028
  -0.41666667 -0.25000000 -0.75000000       0.014
  -0.33333333 -0.33333333 -0.75000000       0.014
   0.25000000  0.25000000  0.25000000       0.005
   0.25000000  0.33333333  0.33333333       0.014
   0.25000000  0.41666667  0.41666667       0.014
   0.25000000  0.50000000  0.50000000       0.007
   0.25000000  0.00000000  0.00000000       0.003
   0.33333333  0.33333333  0.41666667       0.014
   0.33333333  0.41666667  0.50000000       0.028
   0.33333333 -0.08333333  0.00000000       0.014
   0.41666667  0.41666667  0.58333333       0.005
   0.41666667 -0.16666667  0.00000000       0.014
   0.41666667 -0.08333333  0.08333333       0.014
   0.50000000 -0.25000000  0.00000000       0.014
   0.50000000 -0.16666667  0.08333333       0.028
   0.58333333 -0.33333333  0.00000000       0.014
   0.58333333 -0.25000000  0.08333333       0.028
   0.58333333 -0.16666667  0.16666667       0.014
  -0.33333333 -0.33333333 -0.91666667       0.014
  -0.33333333 -0.25000000 -0.83333333       0.028
  -0.25000000 -0.25000000 -0.75000000       0.005
   0.41666667  0.41666667  0.41666667       0.005
   0.41666667  0.50000000  0.50000000       0.007
   0.41666667  0.00000000  0.00000000       0.003
   0.50000000 -0.08333333  0.00000000       0.014
   0.58333333 -0.16666667  0.00000000       0.014
   0.58333333 -0.08333333  0.08333333       0.014
   0.66666667 -0.25000000  0.00000000       0.014
   0.66666667 -0.16666667  0.08333333       0.028
  -0.25000000 -0.25000000 -0.91666667       0.014
  -0.25000000 -0.16666667 -0.83333333       0.014
   0.58333333  0.00000000  0.00000000       0.003
   0.66666667 -0.08333333  0.00000000       0.014
   0.75000000 -0.16666667  0.00000000       0.014
   0.75000000 -0.08333333  0.08333333       0.014
  -0.16666667 -0.16666667 -0.91666667       0.014
   0.75000000  0.00000000  0.00000000       0.003
   0.83333333 -0.08333333  0.00000000       0.014
  -0.08333333 -0.08333333 -0.91666667       0.005
   0.91666667  0.00000000  0.00000000       0.003
 
 k-points in reciprocal lattice and weights: K-Points                                
   0.04166667  0.04166667  0.04166667       0.005
   0.12500000  0.04166667  0.04166667       0.014
   0.20833333  0.04166667  0.04166667       0.014
   0.29166667  0.04166667  0.04166667       0.014
   0.37500000  0.04166667  0.04166667       0.014
   0.45833333  0.04166667  0.04166667       0.007
  -0.04166667  0.04166667  0.04166667       0.003
   0.12500000  0.12500000  0.04166667       0.014
   0.20833333  0.12500000  0.04166667       0.028
   0.29166667  0.12500000  0.04166667       0.028
   0.37500000  0.12500000  0.04166667       0.028
  -0.12500000  0.12500000  0.04166667       0.014
   0.20833333  0.20833333  0.04166667       0.014
   0.29166667  0.20833333  0.04166667       0.028
   0.37500000  0.20833333  0.04166667       0.014
  -0.20833333  0.20833333  0.04166667       0.014
  -0.12500000  0.20833333  0.04166667       0.014
   0.29166667  0.29166667  0.04166667       0.014
  -0.29166667  0.29166667  0.04166667       0.014
  -0.20833333  0.29166667  0.04166667       0.028
  -0.37500000  0.37500000  0.04166667       0.014
  -0.29166667  0.37500000  0.04166667       0.028
  -0.20833333  0.37500000  0.04166667       0.014
  -0.45833333  0.45833333  0.04166667       0.014
  -0.37500000  0.45833333  0.04166667       0.028
  -0.29166667  0.45833333  0.04166667       0.028
  -0.45833333 -0.45833333  0.04166667       0.014
  -0.37500000 -0.45833333  0.04166667       0.028
  -0.29166667 -0.45833333  0.04166667       0.014
  -0.37500000 -0.37500000  0.04166667       0.014
   0.12500000  0.12500000  0.12500000       0.005
   0.20833333  0.12500000  0.12500000       0.014
   0.29166667  0.12500000  0.12500000       0.014
   0.37500000  0.12500000  0.12500000       0.007
  -0.12500000  0.12500000  0.12500000       0.003
   0.20833333  0.20833333  0.12500000       0.014
   0.29166667  0.20833333  0.12500000       0.028
  -0.20833333  0.20833333  0.12500000       0.014
   0.29166667  0.29166667  0.12500000       0.005
  -0.29166667  0.29166667  0.12500000       0.014
  -0.20833333  0.29166667  0.12500000       0.014
  -0.37500000  0.37500000  0.12500000       0.014
  -0.29166667  0.37500000  0.12500000       0.028
  -0.45833333  0.45833333  0.12500000       0.014
  -0.37500000  0.45833333  0.12500000       0.028
  -0.29166667  0.45833333  0.12500000       0.014
  -0.45833333 -0.45833333  0.12500000       0.014
  -0.37500000 -0.45833333  0.12500000       0.028
  -0.37500000 -0.37500000  0.12500000       0.005
   0.20833333  0.20833333  0.20833333       0.005
   0.29166667  0.20833333  0.20833333       0.007
  -0.20833333  0.20833333  0.20833333       0.003
  -0.29166667  0.29166667  0.20833333       0.014
  -0.37500000  0.37500000  0.20833333       0.014
  -0.29166667  0.37500000  0.20833333       0.014
  -0.45833333  0.45833333  0.20833333       0.014
  -0.37500000  0.45833333  0.20833333       0.028
  -0.45833333 -0.45833333  0.20833333       0.014
  -0.37500000 -0.45833333  0.20833333       0.014
  -0.29166667  0.29166667  0.29166667       0.003
  -0.37500000  0.37500000  0.29166667       0.014
  -0.45833333  0.45833333  0.29166667       0.014
  -0.37500000  0.45833333  0.29166667       0.014
  -0.45833333 -0.45833333  0.29166667       0.014
  -0.37500000  0.37500000  0.37500000       0.003
  -0.45833333  0.45833333  0.37500000       0.014
  -0.45833333 -0.45833333  0.37500000       0.005
  -0.45833333  0.45833333  0.45833333       0.003
 
 position of ions in fractional coordinates (direct lattice) 
   0.00000000  0.00000000  0.00000000
 
 position of ions in cartesian coordinates  (Angst):
   0.00000000  0.00000000  0.00000000
 


--------------------------------------------------------------------------------------------------------


 k-point  1 :   0.0417 0.0417 0.0417  plane waves:     138
 k-point  2 :   0.1250 0.0417 0.0417  plane waves:     139
 k-point  3 :   0.2083 0.0417 0.0417  plane waves:     139
 k-point  4 :   0.2917 0.0417 0.0417  plane waves:     137
 k-point  5 :   0.3750 0.0417 0.0417  plane waves:     138
 k-point  6 :   0.4583 0.0417 0.0417  plane waves:     142
 k-point  7 :  -0.0417 0.0417 0.0417  plane waves:     140
 k-point  8 :   0.1250 0.1250 0.0417  plane waves:     140
 k-point  9 :   0.2083 0.1250 0.0417  plane waves:     138
 k-point 10 :   0.2917 0.1250 0.0417  plane waves:     139
 k-point 11 :   0.3750 0.1250 0.0417  plane waves:     137
 k-point 12 :  -0.1250 0.1250 0.0417  plane waves:     139
 k-point 13 :   0.2083 0.2083 0.0417  plane waves:     139
 k-point 14 :   0.2917 0.2083 0.0417  plane waves:     136
 k-point 15 :   0.3750 0.2083 0.0417  plane waves:     136
 k-point 16 :  -0.2083 0.2083 0.0417  plane waves:     140
 k-point 17 :  -0.1250 0.2083 0.0417  plane waves:     143
 k-point 18 :   0.2917 0.2917 0.0417  plane waves:     138
 k-point 19 :  -0.2917 0.2917 0.0417  plane waves:     140
 k-point 20 :  -0.2083 0.2917 0.0417  plane waves:     139
 k-point 21 :  -0.3750 0.3750 0.0417  plane waves:     136
 k-point 22 :  -0.2917 0.3750 0.0417  plane waves:     136
 k-point 23 :  -0.2083 0.3750 0.0417  plane waves:     134
 k-point 24 :  -0.4583 0.4583 0.0417  plane waves:     138
 k-point 25 :  -0.3750 0.4583 0.0417  plane waves:     136
 k-point 26 :  -0.2917 0.4583 0.0417  plane waves:     138
 k-point 27 :  -0.4583-0.4583 0.0417  plane waves:     138
 k-point 28 :  -0.3750-0.4583 0.0417  plane waves:     135
 k-point 29 :  -0.2917-0.4583 0.0417  plane waves:     138
 k-point 30 :  -0.3750-0.3750 0.0417  plane waves:     138
 k-point 31 :   0.1250 0.1250 0.1250  plane waves:     144
 k-point 32 :   0.2083 0.1250 0.1250  plane waves:     136
 k-point 33 :   0.2917 0.1250 0.1250  plane waves:     137
 k-point 34 :   0.3750 0.1250 0.1250  plane waves:     142
 k-point 35 :  -0.1250 0.1250 0.1250  plane waves:     144
 k-point 36 :   0.2083 0.2083 0.1250  plane waves:     139
 k-point 37 :   0.2917 0.2083 0.1250  plane waves:     143
 k-point 38 :  -0.2083 0.2083 0.1250  plane waves:     142
 k-point 39 :   0.2917 0.2917 0.1250  plane waves:     143
 k-point 40 :  -0.2917 0.2917 0.1250  plane waves:     136
 k-point 41 :  -0.2083 0.2917 0.1250  plane waves:     138
 k-point 42 :  -0.3750 0.3750 0.1250  plane waves:     131
 k-point 43 :  -0.2917 0.3750 0.1250  plane waves:     135
 k-point 44 :  -0.4583 0.4583 0.1250  plane waves:     134
 k-point 45 :  -0.3750 0.4583 0.1250  plane waves:     136
 k-point 46 :  -0.2917 0.4583 0.1250  plane waves:     136
 k-point 47 :  -0.4583-0.4583 0.1250  plane waves:     134
 k-point 48 :  -0.3750-0.4583 0.1250  plane waves:     137
 k-point 49 :  -0.3750-0.3750 0.1250  plane waves:     140
 k-point 50 :   0.2083 0.2083 0.2083  plane waves:     146
 k-point 51 :   0.2917 0.2083 0.2083  plane waves:     142
 k-point 52 :  -0.2083 0.2083 0.2083  plane waves:     140
 k-point 53 :  -0.2917 0.2917 0.2083  plane waves:     134
 k-point 54 :  -0.3750 0.3750 0.2083  plane waves:     132
 k-point 55 :  -0.2917 0.3750 0.2083  plane waves:     134
 k-point 56 :  -0.4583 0.4583 0.2083  plane waves:     134
 k-point 57 :  -0.3750 0.4583 0.2083  plane waves:     135
 k-point 58 :  -0.4583-0.4583 0.2083  plane waves:     133
 k-point 59 :  -0.3750-0.4583 0.2083  plane waves:     133
 k-point 60 :  -0.2917 0.2917 0.2917  plane waves:     132
 k-point 61 :  -0.3750 0.3750 0.2917  plane waves:     131
 k-point 62 :  -0.4583 0.4583 0.2917  plane waves:     129
 k-point 63 :  -0.3750 0.4583 0.2917  plane waves:     129
 k-point 64 :  -0.4583-0.4583 0.2917  plane waves:     131
 k-point 65 :  -0.3750 0.3750 0.3750  plane waves:     132
 k-point 66 :  -0.4583 0.4583 0.3750  plane waves:     127
 k-point 67 :  -0.4583-0.4583 0.3750  plane waves:     125
 k-point 68 :  -0.4583 0.4583 0.4583  plane waves:     116

 maximum and minimum number of plane-waves per node :       146      116

 maximum number of plane-waves:       146
 maximum index in each direction: 
   IXMAX=    3   IYMAX=    3   IZMAX=    3
   IXMIN=   -3   IYMIN=   -3   IZMIN=   -3

 NGX is ok and might be reduce to  14
 NGY is ok and might be reduce to  14
 NGZ is ok and might be reduce to  14

 serial   3D FFT for wavefunctions
 parallel 3D FFT for charge:
    minimum data exchange during FFTs selected (reduces bandwidth)


 total amount of memory used by VASP on root node    33424. kBytes
========================================================================

   base      :      30000. kBytes
   nonl-proj :       1451. kBytes
   fftplans  :        204. kBytes
   grid      :        642. kBytes
   one-center:         31. kBytes
   wavefun   :       1096. kBytes
 
     INWAV:  cpu time    0.0000: real time    0.0000
 Broyden mixing: mesh for mixing (old mesh)
   NGX =  7   NGY =  7   NGZ =  7
  (NGX  = 28   NGY  = 28   NGZ  = 28)
  gives a total of    343 points

 initial charge density was supplied:
 charge density of overlapping atoms calculated
 number of electron       8.0000000 magnetization       4.0000000
 keeping initial charge density in first step


--------------------------------------------------------------------------------------------------------


 Maximum index for augmentation-charges         2051 (set IRDMAX)


--------------------------------------------------------------------------------------------------------


 First call to EWALD:  gamma=   0.784
 Maximum number of real-space cells 3x 3x 3
 Maximum number of reciprocal cells 3x 3x 3

 FEWALD executed in parallel
    FEWALD:  cpu time    0.0030: real time    0.0010


----------------------------------------- Iteration    1(   1)  ---------------------------------------


    POTLOK:  cpu time    0.0180: real time    0.0135
    SETDIJ:  cpu time    0.0210: real time    0.0105
     EDDAV:  cpu time    9.1036: real time    5.9452
 BZINTS: Fermi energy: 12.400315;  8.000000 electrons
         Band energy:  62.384574;  BLOECHL correction: -0.425782
       DOS:  cpu time    0.2190: real time    0.1442
    --------------------------------------------
      LOOP:  cpu time    9.3676: real time    6.1156

 eigenvalue-minimisations  :  3684
 total energy-change (2. order) : 0.1321325E+02  (-0.2972479E+03)
 number of electron       8.0000000 magnetization       4.0000000
 augmentation part        8.0000000 magnetization       4.0000000

 Free energy of the ion-electron system (eV)
  ---------------------------------------------------
  alpha Z        PSCENC =        59.71178263
  Ewald energy   TEWEN  =      -588.39789044
  -Hartree energ DENC   =      -112.96750494
  -exchange      EXHF   =         0.00000000
  -V(xc)+E(xc)   XCENC  =         5.94991612
  PAW double counting   =       552.89180568     -560.64780826
  entropy T*S    EENTRO =         0.00000000
  eigenvalues    EBANDS =        62.38457416
  atomic energy  EATOM  =       594.28837649
  Solvation  Ediel_sol  =         0.00000000
  ---------------------------------------------------
  free energy    TOTEN  =        13.21325145 eV

  energy without entropy =       13.21325145  energy(sigma->0) =       13.21325145


--------------------------------------------------------------------------------------------------------




----------------------------------------- Iteration    1(   2)  ---------------------------------------


     EDDAV:  cpu time    9.8405: real time    6.1345
 BZINTS: Fermi energy:  7.861125;  8.000000 electrons
         Band energy:  40.860928;  BLOECHL correction: -0.031898
       DOS:  cpu time    0.2670: real time    0.1569
    --------------------------------------------
      LOOP:  cpu time   10.2554: real time    6.3752

 eigenvalue-minimisations  :  3376
 total energy-change (2. order) :-0.2152365E+02  (-0.1959406E+02)
 number of electron       8.0000000 magnetization       4.0000000
 augmentation part        8.0000000 magnetization       4.0000000

 Free energy of the ion-electron system (eV)
  ---------------------------------------------------
  alpha Z        PSCENC =        59.71178263
  Ewald energy   TEWEN  =      -588.39789044
  -Hartree energ DENC   =      -112.96750494
  -exchange      EXHF   =         0.00000000
  -V(xc)+E(xc)   XCENC  =         5.94991612
  PAW double counting   =       552.89180568     -560.64780826
  entropy T*S    EENTRO =         0.00000000
  eigenvalues    EBANDS =        40.86092816
  atomic energy  EATOM  =       594.28837649
  Solvation  Ediel_sol  =         0.00000000
  ---------------------------------------------------
  free energy    TOTEN  =        -8.31039455 eV

  energy without entropy =       -8.31039455  energy(sigma->0) =       -8.31039455


--------------------------------------------------------------------------------------------------------




----------------------------------------- Iteration    1(   3)  ---------------------------------------


     EDDAV:  cpu time   12.6811: real time    7.6499
 BZINTS: Fermi energy:  7.815232;  8.000000 electrons
         Band energy:  40.476531;  BLOECHL correction: -0.033197
       DOS:  cpu time    0.2290: real time    0.1400
    --------------------------------------------
      LOOP:  cpu time   12.9720: real time    7.8294

 eigenvalue-minimisations  :  3864
 total energy-change (2. order) :-0.3843973E+00  (-0.3830062E+00)
 number of electron       8.0000000 magnetization       4.0000000
 augmentation part        8.0000000 magnetization       4.0000000

 Free energy of the ion-electron system (eV)
  ---------------------------------------------------
  alpha Z        PSCENC =        59.71178263
  Ewald energy   TEWEN  =      -588.39789044
  -Hartree energ DENC   =      -112.96750494
  -exchange      EXHF   =         0.00000000
  -V(xc)+E(xc)   XCENC  =         5.94991612
  PAW double counting   =       552.89180568     -560.64780826
  entropy T*S    EENTRO =         0.00000000
  eigenvalues    EBANDS =        40.47653088
  atomic energy  EATOM  =       594.28837649
  Solvation  Ediel_sol  =         0.00000000
  ---------------------------------------------------
  free energy    TOTEN  =        -8.69479183 eV

  energy without entropy =       -8.69479183  energy(sigma->0) =       -8.69479183


--------------------------------------------------------------------------------------------------------




----------------------------------------- Iteration    1(   4)  ---------------------------------------


     EDDAV:  cpu time   11.7782: real time    7.3186
 BZINTS: Fermi energy:  7.815104;  8.000000 electrons
         Band energy:  40.475352;  BLOECHL correction: -0.033201
       DOS:  cpu time    0.3329: real time    0.2109
    --------------------------------------------
      LOOP:  cpu time   12.2991: real time    7.6331

 eigenvalue-minimisations  :  3608
 total energy-change (2. order) :-0.1178967E-02  (-0.1176376E-02)
 number of electron       8.0000000 magnetization       4.0000000
 augmentation part        8.0000000 magnetization       4.0000000

 Free energy of the ion-electron system (eV)
  ---------------------------------------------------
  alpha Z        PSCENC =        59.71178263
  Ewald energy   TEWEN  =      -588.39789044
  -Hartree energ DENC   =      -112.96750494
  -exchange      EXHF   =         0.00000000
  -V(xc)+E(xc)   XCENC  =         5.94991612
  PAW double counting   =       552.89180568     -560.64780826
  entropy T*S    EENTRO =         0.00000000
  eigenvalues    EBANDS =        40.47535192
  atomic energy  EATOM  =       594.28837649
  Solvation  Ediel_sol  =         0.00000000
  ---------------------------------------------------
  free energy    TOTEN  =        -8.69597079 eV

  energy without entropy =       -8.69597079  energy(sigma->0) =       -8.69597079


--------------------------------------------------------------------------------------------------------




----------------------------------------- Iteration    1(   5)  ---------------------------------------


     EDDAV:  cpu time   11.8652: real time    7.2815
 BZINTS: Fermi energy:  7.815104;  8.000000 electrons
         Band energy:  40.475345;  BLOECHL correction: -0.033201
       DOS:  cpu time    0.3369: real time    0.1836
    CHARGE:  cpu time    0.1560: real time    0.0955
    MIXING:  cpu time    0.0020: real time    0.0005
    --------------------------------------------
      LOOP:  cpu time   12.3681: real time    7.5741

 eigenvalue-minimisations  :  3796
 total energy-change (2. order) :-0.6808230E-05  (-0.6793696E-05)
 number of electron       8.0000012 magnetization       1.8501259
 augmentation part        3.6604799 magnetization       1.1353956

 Broyden mixing:
  rms(total) = 0.12098E+01    rms(broyden)= 0.12095E+01
  rms(prec ) = 0.32988E+01
  weight for this iteration     100.00

 Free energy of the ion-electron system (eV)
  ---------------------------------------------------
  alpha Z        PSCENC =        59.71178263
  Ewald energy   TEWEN  =      -588.39789044
  -Hartree energ DENC   =      -112.96750494
  -exchange      EXHF   =         0.00000000
  -V(xc)+E(xc)   XCENC  =         5.94991612
  PAW double counting   =       552.89180568     -560.64780826
  entropy T*S    EENTRO =         0.00000000
  eigenvalues    EBANDS =        40.47534511
  atomic energy  EATOM  =       594.28837649
  Solvation  Ediel_sol  =         0.00000000
  ---------------------------------------------------
  free energy    TOTEN  =        -8.69597760 eV

  energy without entropy =       -8.69597760  energy(sigma->0) =       -8.69597760


--------------------------------------------------------------------------------------------------------




----------------------------------------- Iteration    1(   6)  ---------------------------------------


    POTLOK:  cpu time    0.0520: real time    0.0323
    SETDIJ:  cpu time    0.0060: real time    0.0228
     EDDAV:  cpu time    8.9656: real time    5.5136
 BZINTS: Fermi energy:  5.205497;  8.000000 electrons
         Band energy:  24.957954;  BLOECHL correction: -0.032304
       DOS:  cpu time    0.2490: real time    0.1558
    CHARGE:  cpu time    0.0830: real time    0.0460
    MIXING:  cpu time    0.0010: real time    0.0006
    --------------------------------------------
      LOOP:  cpu time    9.3616: real time    5.7746

 eigenvalue-minimisations  :  3696
 total energy-change (2. order) : 0.3968802E+00  (-0.9440831E+00)
 number of electron       8.0000014 magnetization       2.2692733
 augmentation part        4.2608265 magnetization       1.9098722

 Broyden mixing:
  rms(total) = 0.49391E+00    rms(broyden)= 0.49362E+00
  rms(prec ) = 0.64557E+00
  weight for this iteration     100.00

 eigenvalues of (default mixing * dielectric matrix)
  average eigenvalue GAMMA=   0.7666
  0.7666

 Free energy of the ion-electron system (eV)
  ---------------------------------------------------
  alpha Z        PSCENC =        59.71178263
  Ewald energy   TEWEN  =      -588.39789044
  -Hartree energ DENC   =       -96.93221477
  -exchange      EXHF   =         0.00000000
  -V(xc)+E(xc)   XCENC  =         3.98817407
  PAW double counting   =       606.79134766     -612.70662757
  entropy T*S    EENTRO =         0.00000000
  eigenvalues    EBANDS =        24.95795447
  atomic energy  EATOM  =       594.28837649
  Solvation  Ediel_sol  =         0.00000000
  ---------------------------------------------------
  free energy    TOTEN  =        -8.29909745 eV

  energy without entropy =       -8.29909745  energy(sigma->0) =       -8.29909745


--------------------------------------------------------------------------------------------------------




----------------------------------------- Iteration    1(   7)  ---------------------------------------


    POTLOK:  cpu time    0.0300: real time    0.0205
    SETDIJ:  cpu time    0.0090: real time    0.0075
     EDDAV:  cpu time    9.9115: real time    6.0952
 BZINTS: Fermi energy:  5.684791;  8.000000 electrons
         Band energy:  27.961641;  BLOECHL correction: -0.031722
       DOS:  cpu time    0.2660: real time    0.1538
    CHARGE:  cpu time    0.0850: real time    0.0576
    MIXING:  cpu time    0.0010: real time    0.0007
    --------------------------------------------
      LOOP:  cpu time   10.3064: real time    6.3388

 eigenvalue-minimisations  :  3828
 total energy-change (2. order) : 0.4146930E-01  (-0.4389813E-01)
 number of electron       8.0000014 magnetization       2.2336339
 augmentation part        4.1289032 magnetization       1.8508876

 Broyden mixing:
  rms(total) = 0.30748E+00    rms(broyden)= 0.30747E+00
  rms(prec ) = 0.40983E+00
  weight for this iteration     100.00

 eigenvalues of (default mixing * dielectric matrix)
  average eigenvalue GAMMA=   0.7683
  0.9778  0.5588

 Free energy of the ion-electron system (eV)
  ---------------------------------------------------
  alpha Z        PSCENC =        59.71178263
  Ewald energy   TEWEN  =      -588.39789044
  -Hartree energ DENC   =       -98.66832202
  -exchange      EXHF   =         0.00000000
  -V(xc)+E(xc)   XCENC  =         4.40576940
  PAW double counting   =       644.20259252     -651.76157824
  entropy T*S    EENTRO =         0.00000000
  eigenvalues    EBANDS =        27.96164150
  atomic energy  EATOM  =       594.28837649
  Solvation  Ediel_sol  =         0.00000000
  ---------------------------------------------------
  free energy    TOTEN  =        -8.25762815 eV

  energy without entropy =       -8.25762815  energy(sigma->0) =       -8.25762815


--------------------------------------------------------------------------------------------------------




----------------------------------------- Iteration    1(   8)  ---------------------------------------


    POTLOK:  cpu time    0.0500: real time    0.0328
    SETDIJ:  cpu time    0.0330: real time    0.0193
     EDDAV:  cpu time   10.2254: real time    6.4832
 BZINTS: Fermi energy:  5.638788;  8.000000 electrons
         Band energy:  27.695966;  BLOECHL correction: -0.031834
       DOS:  cpu time    0.2540: real time    0.1529
    CHARGE:  cpu time    0.0630: real time    0.0397
    MIXING:  cpu time    0.0070: real time    0.0046
    --------------------------------------------
      LOOP:  cpu time   10.6354: real time    6.7358

 eigenvalue-minimisations  :  3896
 total energy-change (2. order) : 0.8357174E-02  (-0.6395888E-03)
 number of electron       8.0000014 magnetization       2.2148185
 augmentation part        4.1400323 magnetization       1.8333470

 Broyden mixing:
  rms(total) = 0.12415E+00    rms(broyden)= 0.12415E+00
  rms(prec ) = 0.20443E+00
  weight for this iteration     100.00

 eigenvalues of (default mixing * dielectric matrix)
  average eigenvalue GAMMA=   1.1456
  2.0335  0.7908  0.6124

 Free energy of the ion-electron system (eV)
  ---------------------------------------------------
  alpha Z        PSCENC =        59.71178263
  Ewald energy   TEWEN  =      -588.39789044
  -Hartree energ DENC   =       -97.81649484
  -exchange      EXHF   =         0.00000000
  -V(xc)+E(xc)   XCENC  =         4.33782714
  PAW double counting   =       666.38726544     -674.45610328
  entropy T*S    EENTRO =         0.00000000
  eigenvalues    EBANDS =        27.69596588
  atomic energy  EATOM  =       594.28837649
  Solvation  Ediel_sol  =         0.00000000
  ---------------------------------------------------
  free energy    TOTEN  =        -8.24927098 eV

  energy without entropy =       -8.24927098  energy(sigma->0) =       -8.24927098


--------------------------------------------------------------------------------------------------------




----------------------------------------- Iteration    1(   9)  ---------------------------------------


    POTLOK:  cpu time    0.0220: real time    0.0151
    SETDIJ:  cpu time    0.0110: real time    0.0077
     EDDAV:  cpu time   10.0955: real time    6.2079
 BZINTS: Fermi energy:  5.577127;  8.000000 electrons
         Band energy:  27.319190;  BLOECHL correction: -0.032162
       DOS:  cpu time    0.2590: real time    0.1691
    CHARGE:  cpu time    0.0730: real time    0.0470
    MIXING:  cpu time    0.0020: real time    0.0007
    --------------------------------------------
      LOOP:  cpu time   10.4664: real time    6.4509

 eigenvalue-minimisations  :  4352
 total energy-change (2. order) : 0.6059402E-02  (-0.7519377E-03)
 number of electron       8.0000014 magnetization       2.2196389
 augmentation part        4.1565280 magnetization       1.8391400

 Broyden mixing:
  rms(total) = 0.19322E-01    rms(broyden)= 0.19311E-01
  rms(prec ) = 0.26356E-01
  weight for this iteration     100.00

 eigenvalues of (default mixing * dielectric matrix)
  average eigenvalue GAMMA=   1.2044
  2.4120  1.0036  0.7728  0.6291

 Free energy of the ion-electron system (eV)
  ---------------------------------------------------
  alpha Z        PSCENC =        59.71178263
  Ewald energy   TEWEN  =      -588.39789044
  -Hartree energ DENC   =       -96.54743077
  -exchange      EXHF   =         0.00000000
  -V(xc)+E(xc)   XCENC  =         4.29587124
  PAW double counting   =       703.39820644     -712.31131763
  entropy T*S    EENTRO =         0.00000000
  eigenvalues    EBANDS =        27.31919047
  atomic energy  EATOM  =       594.28837649
  Solvation  Ediel_sol  =         0.00000000
  ---------------------------------------------------
  free energy    TOTEN  =        -8.24321157 eV

  energy without entropy =       -8.24321157  energy(sigma->0) =       -8.24321157


--------------------------------------------------------------------------------------------------------




----------------------------------------- Iteration    1(  10)  ---------------------------------------


    POTLOK:  cpu time    0.0240: real time    0.0159
    SETDIJ:  cpu time    0.0350: real time    0.0189
     EDDAV:  cpu time   10.0085: real time    6.0411
 BZINTS: Fermi energy:  5.594548;  8.000000 electrons
         Band energy:  27.427137;  BLOECHL correction: -0.032192
       DOS:  cpu time    0.2190: real time    0.1263
    CHARGE:  cpu time    0.0460: real time    0.0302
    MIXING:  cpu time    0.0010: real time    0.0008
    --------------------------------------------
      LOOP:  cpu time   10.3404: real time    6.2362

 eigenvalue-minimisations  :  3628
 total energy-change (2. order) : 0.8419291E-04  (-0.7006117E-04)
 number of electron       8.0000014 magnetization       2.2219960
 augmentation part        4.1518965 magnetization       1.8401720

 Broyden mixing:
  rms(total) = 0.49232E-02    rms(broyden)= 0.49216E-02
  rms(prec ) = 0.65635E-02
  weight for this iteration     100.00

 eigenvalues of (default mixing * dielectric matrix)
  average eigenvalue GAMMA=   1.1444
  2.4523  1.0855  0.6738  0.6738  0.8363

 Free energy of the ion-electron system (eV)
  ---------------------------------------------------
  alpha Z        PSCENC =        59.71178263
  Ewald energy   TEWEN  =      -588.39789044
  -Hartree energ DENC   =       -96.47678728
  -exchange      EXHF   =         0.00000000
  -V(xc)+E(xc)   XCENC  =         4.29886709
  PAW double counting   =       711.31399745     -720.40860998
  entropy T*S    EENTRO =         0.00000000
  eigenvalues    EBANDS =        27.42713666
  atomic energy  EATOM  =       594.28837649
  Solvation  Ediel_sol  =         0.00000000
  ---------------------------------------------------
  free energy    TOTEN  =        -8.24312738 eV

  energy without entropy =       -8.24312738  energy(sigma->0) =       -8.24312738


--------------------------------------------------------------------------------------------------------




----------------------------------------- Iteration    1(  11)  ---------------------------------------


    POTLOK:  cpu time    0.0480: real time    0.0209
    SETDIJ:  cpu time    0.0340: real time    0.0161
     EDDAV:  cpu time    8.9416: real time    5.4025
 BZINTS: Fermi energy:  5.591784;  8.000000 electrons
         Band energy:  27.407436;  BLOECHL correction: -0.032203
       DOS:  cpu time    0.2720: real time    0.1861
    CHARGE:  cpu time    0.0370: real time    0.0257
    MIXING:  cpu time    0.0020: real time    0.0008
    --------------------------------------------
      LOOP:  cpu time    9.3386: real time    5.6547

 eigenvalue-minimisations  :  3676
 total energy-change (2. order) :-0.1594031E-04  (-0.3986689E-05)
 number of electron       8.0000014 magnetization       2.2185222
 augmentation part        4.1526603 magnetization       1.8365077

 Broyden mixing:
  rms(total) = 0.36876E-02    rms(broyden)= 0.36867E-02
  rms(prec ) = 0.40884E-02
  weight for this iteration     100.00

 eigenvalues of (default mixing * dielectric matrix)
  average eigenvalue GAMMA=   1.3187
  2.3998  2.3998  0.9955  0.6450  0.7361  0.7361

 Free energy of the ion-electron system (eV)
  ---------------------------------------------------
  alpha Z        PSCENC =        59.71178263
  Ewald energy   TEWEN  =      -588.39789044
  -Hartree energ DENC   =       -96.46840341
  -exchange      EXHF   =         0.00000000
  -V(xc)+E(xc)   XCENC  =         4.30006212
  PAW double counting   =       711.78942789     -720.87393484
  entropy T*S    EENTRO =         0.00000000
  eigenvalues    EBANDS =        27.40743623
  atomic energy  EATOM  =       594.28837649
  Solvation  Ediel_sol  =         0.00000000
  ---------------------------------------------------
  free energy    TOTEN  =        -8.24314332 eV

  energy without entropy =       -8.24314332  energy(sigma->0) =       -8.24314332


--------------------------------------------------------------------------------------------------------




----------------------------------------- Iteration    1(  12)  ---------------------------------------


    POTLOK:  cpu time    0.0430: real time    0.0253
    SETDIJ:  cpu time    0.0100: real time    0.0074
     EDDAV:  cpu time    9.1586: real time    5.8016
 BZINTS: Fermi energy:  5.591075;  8.000000 electrons
         Band energy:  27.401964;  BLOECHL correction: -0.032208
       DOS:  cpu time    0.2170: real time    0.1351
    --------------------------------------------
      LOOP:  cpu time    9.4336: real time    5.9728

 eigenvalue-minimisations  :  3176
 total energy-change (2. order) :-0.7975309E-06  (-0.2079351E-06)
 number of electron       8.0000014 magnetization       2.2185222
 augmentation part        4.1526603 magnetization       1.8365077

 Free energy of the ion-electron system (eV)
  ---------------------------------------------------
  alpha Z        PSCENC =        59.71178263
  Ewald energy   TEWEN  =      -588.39789044
  -Hartree energ DENC   =       -96.48876597
  -exchange      EXHF   =         0.00000000
  -V(xc)+E(xc)   XCENC  =         4.29772564
  PAW double counting   =       711.86518367     -720.92152051
  entropy T*S    EENTRO =         0.00000000
  eigenvalues    EBANDS =        27.40196437
  atomic energy  EATOM  =       594.28837649
  Solvation  Ediel_sol  =         0.00000000
  ---------------------------------------------------
  free energy    TOTEN  =        -8.24314412 eV

  energy without entropy =       -8.24314412  energy(sigma->0) =       -8.24314412


--------------------------------------------------------------------------------------------------------




 average (electrostatic) potential at core
  the test charge radii are     1.0103
  (the norm of the test charge is              1.0000)
       1 -43.4841
 
 
 
 E-fermi :   5.5911     XC(G=0): -13.0134     alpha+bet :-13.3918


 spin component 1

 k-point     1 :       0.0417    0.0417    0.0417
  band No.  band energies     occupation 
      1      -2.2579      1.00000
      2       3.2601      1.00000
      3       3.2601      1.00000
      4       3.6066      1.00000
      5       4.5265      1.00000
      6       4.5265      1.00000
      7      28.5641      0.00000
      8      28.5641      0.00000
      9      30.8725      0.00000
     10      33.0837      0.00000
     11      35.6009      0.00000
     12      35.6009      0.00000

 k-point     2 :       0.1250    0.0417    0.0417
  band No.  band energies     occupation 
      1      -1.4612      1.00000
      2       3.0462      1.00000
      3       3.1646      1.00000
      4       4.0692      1.00000
      5       4.4180      1.00000
      6       4.5735      1.00005
      7      25.1749      0.00000
      8      27.0122      0.00000
      9      30.1803      0.00000
     10      31.0610      0.00000
     11      35.3730      0.00000
     12      35.4384      0.00000

 k-point     3 :       0.2083    0.0417    0.0417
  band No.  band energies     occupation 
      1      -0.3227      1.00000
      2       2.7764      1.00000
      3       3.0838      1.00000
      4       4.4164      1.00000
      5       4.6308      1.00000
      6       4.7337      1.05057
      7      21.3281      0.00000
      8      25.4525      0.00000
      9      27.9345      0.00000
     10      30.6925      0.00000
     11      34.4408      0.00000
     12      36.5562      0.00000

 k-point     4 :       0.2917    0.0417    0.0417
  band No.  band energies     occupation 
      1       0.6275      1.00000
      2       2.5243      1.00000
      3       3.4793      1.00000
      4       4.5220      1.00000
      5       4.6897      1.00178
      6       5.5219      0.54457
      7      17.5750      0.00000
      8      24.1466      0.00000
      9      26.1736      0.00000
     10      30.2618      0.00000
     11      33.9300      0.00000
     12      38.7288      0.00000

 k-point     5 :       0.3750    0.0417    0.0417
  band No.  band energies     occupation 
      1       0.8992      1.00000
      2       2.3482      1.00000
      3       4.4654      1.00000
      4       4.7079      1.00000
      5       4.7364      1.04997
      6       6.4357     -0.04412
      7      14.3792      0.00000
      8      23.2867      0.00000
      9      24.9833      0.00000
     10      29.9882      0.00000
     11      33.7666      0.00000
     12      40.0362      0.00000

 k-point     6 :       0.4583    0.0417    0.0417
  band No.  band energies     occupation 
      1       0.9095      1.00000
      2       2.2851      1.00000
      3       4.6296      1.00000
      4       4.7544      1.00000
      5       5.1151      1.04130
      6       7.1348     -0.00035
      7      12.8401      0.00000
      8      22.9842      0.00000
      9      24.5561      0.00000
     10      29.8880      0.00000
     11      33.7461      0.00000
     12      39.9726      0.00000

 k-point     7 :      -0.0417    0.0417    0.0417
  band No.  band energies     occupation 
      1      -2.5370      1.00000
      2       3.3434      1.00000
      3       3.3434      1.00000
      4       3.3825      1.00000
      5       4.5068      1.00000
      6       4.5937      1.00000
      7      29.5672      0.00000
      8      30.3414      0.00000
      9      30.3414      0.00000
     10      34.1801      0.00000
     11      35.8958      0.00000
     12      35.8958      0.00000

 k-point     8 :       0.1250    0.1250    0.0417
  band No.  band energies     occupation 
      1      -0.4982      1.00000
      2       2.8691      1.00000
      3       2.8923      1.00000
      4       4.4035      1.00000
      5       4.6260      1.00000
      6       4.7384      1.06165
      7      23.1183      0.00000
      8      24.0359      0.00000
      9      27.2977      0.00000
     10      32.0101      0.00000
     11      35.8910      0.00000
     12      37.0821      0.00000

 k-point     9 :       0.2083    0.1250    0.0417
  band No.  band energies     occupation 
      1       0.6139      1.00000
      2       2.6032      1.00000
      3       2.8377      1.00000
      4       4.4469      1.00000
      5       4.7141      1.00000
      6       5.6288      0.40861
      7      19.6779      0.00000
      8      22.2597      0.00000
      9      25.4010      0.00000
     10      32.1606      0.00000
     11      36.4351      0.00000
     12      37.4369      0.00000

 k-point    10 :       0.2917    0.1250    0.0417
  band No.  band energies     occupation 
      1       1.1837      1.00000
      2       2.4027      1.00000
      3       3.3636      1.00000
      4       4.5596      1.00000
      5       4.7921      1.00072
      6       6.7814     -0.03963
      7      16.1325      0.00000
      8      21.1777      0.00000
      9      24.1269      0.00000
     10      31.9482      0.00000
     11      36.6236      0.00000
     12      38.3558      0.00000

 k-point    11 :       0.3750    0.1250    0.0417
  band No.  band energies     occupation 
      1       1.2212      1.00000
      2       2.2999      1.00000
      3       3.9845      1.00000
      4       4.6366      1.00000
      5       4.9052      1.01521
      6       8.1264     -0.00011
      7      13.4147      0.00000
      8      20.6032      0.00000
      9      23.4574      0.00000
     10      31.7885      0.00000
     11      36.6537      0.00000
     12      39.0329      0.00000

 k-point    12 :      -0.1250    0.1250    0.0417
  band No.  band energies     occupation 
      1      -1.9850      1.00000
      2       3.2139      1.00000
      3       3.3252      1.00000
      4       3.6633      1.00000
      5       4.3554      1.00000
      6       4.6353      1.00000
      7      27.0036      0.00000
      8      29.2287      0.00000
      9      29.7405      0.00000
     10      33.3108      0.00000
     11      33.6951      0.00000
     12      34.3632      0.00000

 k-point    13 :       0.2083    0.2083    0.0417
  band No.  band energies     occupation 
      1       1.4511      1.00000
      2       2.4308      1.00000
      3       2.7905      1.00000
      4       4.5094      1.00000
      5       4.8101      1.00000
      6       6.9088     -0.02117
      7      18.0850      0.00000
      8      18.8828      0.00000
      9      23.9917      0.00000
     10      33.0644      0.00000
     11      36.5247      0.00000
     12      40.2866      0.00000

 k-point    14 :       0.2917    0.2083    0.0417
  band No.  band energies     occupation 
      1       1.6798      1.00000
      2       2.3462      1.00000
      3       3.1218      1.00000
      4       4.6207      1.00000
      5       4.8784      1.00000
      6       8.6226      0.00000
      7      15.0383      0.00000
      8      17.7321      0.00000
      9      23.1912      0.00000
     10      33.4110      0.00000
     11      37.0537      0.00000
     12      40.8142      0.00000

 k-point    15 :       0.3750    0.2083    0.0417
  band No.  band energies     occupation 
      1       1.6616      1.00000
      2       2.3308      1.00000
      3       3.3147      1.00000
      4       4.6785      1.00000
      5       4.9149      1.00125
      6      10.0046      0.00000
      7      13.0952      0.00000
      8      17.4238      0.00000
      9      22.9221      0.00000
     10      33.4736      0.00000
     11      37.4725      0.00000
     12      40.5609      0.00000

 k-point    16 :      -0.2083    0.2083    0.0417
  band No.  band energies     occupation 
      1      -0.9780      1.00000
      2       2.9752      1.00000
      3       3.2368      1.00000
      4       4.1971      1.00000
      5       4.2818      1.00000
      6       4.6825      1.00008
      7      23.2632      0.00000
      8      27.4213      0.00000
      9      28.7493      0.00000
     10      31.5997      0.00000
     11      33.0871      0.00000
     12      34.5111      0.00000

 k-point    17 :      -0.1250    0.2083    0.0417
  band No.  band energies     occupation 
      1      -1.2089      1.00000
      2       3.1430      1.00000
      3       3.1980      1.00000
      4       4.0503      1.00000
      5       4.1758      1.00000
      6       4.7293      1.00027
      7      24.9314      0.00000
      8      26.2948      0.00000
      9      29.7786      0.00000
     10      31.1922      0.00000
     11      33.0150      0.00000
     12      35.5897      0.00000

 k-point    18 :       0.2917    0.2917    0.0417
  band No.  band energies     occupation 
      1       1.9244      1.00000
      2       2.4624      1.00000
      3       2.8566      1.00000
      4       4.7334      1.00000
      5       4.8626      1.00000
      6      10.9108      0.00000
      7      13.7113      0.00000
      8      15.3336      0.00000
      9      22.7751      0.00000
     10      34.7180      0.00000
     11      36.2242      0.00000
     12      42.8878      0.00000

 k-point    19 :      -0.2917    0.2917    0.0417
  band No.  band energies     occupation 
      1       0.1582      1.00000
      2       2.7082      1.00000
      3       3.3041      1.00000
      4       4.3948      1.00000
      5       4.7547      1.00000
      6       4.8647      1.05958
      7      19.3854      0.00000
      8      25.7553      0.00000
      9      27.3552      0.00000
     10      30.3251      0.00000
     11      32.7348      0.00000
     12      36.0363      0.00000

 k-point    20 :      -0.2083    0.2917    0.0417
  band No.  band energies     occupation 
      1      -0.1078      1.00000
      2       2.8998      1.00000
      3       3.0711      1.00000
      4       4.1768      1.00000
      5       4.6677      1.00000
      6       4.8775      1.04762
      7      21.5066      0.00000
      8      24.1815      0.00000
      9      28.5153      0.00000
     10      30.3175      0.00000
     11      33.3773      0.00000
     12      35.9467      0.00000

 k-point    21 :      -0.3750    0.3750    0.0417
  band No.  band energies     occupation 
      1       0.7667      1.00000
      2       2.4843      1.00000
      3       3.9622      1.00000
      4       4.5884      1.00000
      5       5.0897      1.02058
      6       5.4982      0.37139
      7      15.8381      0.00000
      8      24.5249      0.00000
      9      25.9675      0.00000
     10      29.7349      0.00000
     11      32.7099      0.00000
     12      37.6369      0.00000

 k-point    22 :      -0.2917    0.3750    0.0417
  band No.  band energies     occupation 
      1       0.8087      1.00000
      2       2.6525      1.00000
      3       3.2190      1.00000
      4       4.3746      1.00000
      5       4.9407      1.00347
      6       5.6342      0.33818
      7      17.7601      0.00000
      8      22.8287      0.00000
      9      26.8016      0.00000
     10      30.2274      0.00000
     11      34.0933      0.00000
     12      36.0573      0.00000

 k-point    23 :      -0.2083    0.3750    0.0417
  band No.  band energies     occupation 
      1       0.8761      1.00000
      2       2.6379      1.00000
      3       3.0007      1.00000
      4       4.2205      1.00000
      5       4.8891      1.00000
      6       5.7445      0.24302
      7      19.7499      0.00000
      8      20.5698      0.00000
      9      27.8449      0.00000
     10      29.7900      0.00000
     11      33.4583      0.00000
     12      38.8530      0.00000

 k-point    24 :      -0.4583    0.4583    0.0417
  band No.  band energies     occupation 
      1       0.8553      1.00000
      2       2.3578      1.00000
      3       4.4082      1.00000
      4       4.6020      1.00000
      5       5.8926      0.30251
      6       6.2322     -0.00725
      7      13.2566      0.00000
      8      23.8747      0.00000
      9      25.1336      0.00000
     10      29.4967      0.00000
     11      32.7815      0.00000
     12      38.5211      0.00000

 k-point    25 :      -0.3750    0.4583    0.0417
  band No.  band energies     occupation 
      1       1.0636      1.00000
      2       2.4968      1.00000
      3       3.6759      1.00000
      4       4.5129      1.00000
      5       5.3382      0.99679
      6       6.8132     -0.02420
      7      14.5096      0.00000
      8      21.9472      0.00000
      9      25.6541      0.00000
     10      30.1597      0.00000
     11      34.7128      0.00000
     12      36.4026      0.00000

 k-point    26 :      -0.2917    0.4583    0.0417
  band No.  band energies     occupation 
      1       1.4415      1.00000
      2       2.4721      1.00000
      3       3.0924      1.00000
      4       4.4048      1.00000
      5       5.0480      1.00338
      6       7.1588     -0.01342
      7      16.4601      0.00000
      8      19.1314      0.00000
      9      26.6993      0.00000
     10      30.1665      0.00000
     11      33.9220      0.00000
     12      39.4287      0.00000

 k-point    27 :      -0.4583   -0.4583    0.0417
  band No.  band energies     occupation 
      1       1.0660      1.00000
      2       2.4418      1.00000
      3       3.8764      1.00000
      4       4.5162      1.00000
      5       5.5809      0.69646
      6       7.7384     -0.00012
      7      12.8820      0.00000
      8      21.6320      0.00000
      9      25.2526      0.00000
     10      30.1314      0.00000
     11      34.9583      0.00000
     12      36.6128      0.00000

 k-point    28 :      -0.3750   -0.4583    0.0417
  band No.  band energies     occupation 
      1       1.4888      1.00000
      2       2.4918      1.00000
      3       3.2123      1.00000
      4       4.5275      1.00000
      5       5.2521      1.02325
      6       8.8832      0.00000
      7      13.5879      0.00000
      8      18.5164      0.00000
      9      26.0471      0.00000
     10      30.4272      0.00000
     11      34.5987      0.00000
     12      38.8910      0.00000

 k-point    29 :      -0.2917   -0.4583    0.0417
  band No.  band energies     occupation 
      1       1.8929      1.00000
      2       2.3064      1.00000
      3       2.9263      1.00000
      4       4.5889      1.00000
      5       5.0716      1.00178
      6       9.2340      0.00000
      7      15.0862      0.00000
      8      16.2201      0.00000
      9      26.4050      0.00000
     10      30.8466      0.00000
     11      33.4491      0.00000
     12      40.7499      0.00000

 k-point    30 :      -0.3750   -0.3750    0.0417
  band No.  band energies     occupation 
      1       1.9728      1.00000
      2       2.4410      1.00000
      3       2.7201      1.00000
      4       4.7277      1.00000
      5       5.0484      1.00694
      6      11.0666      0.00000
      7      13.0830      0.00000
      8      15.6307      0.00000
      9      26.2602      0.00000
     10      31.3917      0.00000
     11      33.1310      0.00000
     12      39.9756      0.00000

 k-point    31 :       0.1250    0.1250    0.1250
  band No.  band energies     occupation 
      1       0.5480      1.00000
      2       2.6101      1.00000
      3       2.6101      1.00000
      4       4.5817      1.00000
      5       4.5817      1.00000
      6       5.6534      0.38548
      7      21.5776      0.00000
      8      21.5776      0.00000
      9      23.6923      0.00000
     10      33.9446      0.00000
     11      38.4216      0.00000
     12      38.4216      0.00000

 k-point    32 :       0.2083    0.1250    0.1250
  band No.  band energies     occupation 
      1       1.4813      1.00000
      2       2.3980      1.00000
      3       2.6206      1.00000
      4       4.6173      1.00000
      5       4.6941      1.00000
      6       6.8529     -0.02570
      7      18.2125      0.00000
      8      20.4164      0.00000
      9      21.7402      0.00000
     10      34.8129      0.00000
     11      38.8027      0.00000
     12      39.6035      0.00000

 k-point    33 :       0.2917    0.1250    0.1250
  band No.  band energies     occupation 
      1       1.6145      1.00000
      2       2.2698      1.00000
      3       3.2868      1.00000
      4       4.6810      1.00000
      5       4.7519      1.00000
      6       8.4067     -0.00003
      7      14.9223      0.00000
      8      19.6830      0.00000
      9      20.7375      0.00000
     10      34.8054      0.00000
     11      38.9662      0.00000
     12      41.3449      0.00000

 k-point    34 :       0.3750    0.1250    0.1250
  band No.  band energies     occupation 
      1       1.5705      1.00000
      2       2.2273      1.00000
      3       3.6435      1.00000
      4       4.7101      1.00000
      5       4.7693      1.00000
      6       9.6194      0.00000
      7      13.0788      0.00000
      8      19.4326      0.00000
      9      20.4014      0.00000
     10      34.7317      0.00000
     11      39.0858      0.00000
     12      41.1105      0.00000

 k-point    35 :      -0.1250    0.1250    0.1250
  band No.  band energies     occupation 
      1      -1.4563      1.00000
      2       3.3715      1.00000
      3       3.3715      1.00000
      4       3.6755      1.00000
      5       4.0311      1.00000
      6       4.7800      1.00000
      7      26.3592      0.00000
      8      28.1852      0.00000
      9      28.1852      0.00000
     10      29.9980      0.00000
     11      35.0733      0.00000
     12      35.0734      0.00000

 k-point    36 :       0.2083    0.2083    0.1250
  band No.  band energies     occupation 
      1       2.0041      1.00000
      2       2.3288      1.00000
      3       2.6496      1.00000
[...]
      1       3.0313      1.00000
      2       4.1136      1.00000
      3       5.2043      0.97601
      4       6.3840      0.00000
      5       8.0873      0.00000
      6      10.4522      0.00000
      7      14.8993      0.00000
      8      21.0197      0.00000
      9      23.4345      0.00000
     10      30.0911      0.00000
     11      35.4251      0.00000
     12      36.1015      0.00000

 k-point    57 :      -0.3750    0.4583    0.2083
  band No.  band energies     occupation 
      1       3.1573      1.00000
      2       3.8482      1.00000
      3       5.4164      0.80029
      4       6.5558      0.00000
      5       7.7586      0.00000
      6      10.4821      0.00000
      7      16.5465      0.00000
      8      18.9142      0.00000
      9      24.8109      0.00000
     10      27.6671      0.00000
     11      34.6448      0.00000
     12      37.5492      0.00000

 k-point    58 :      -0.4583   -0.4583    0.2083
  band No.  band energies     occupation 
      1       3.3141      1.00000
      2       3.7630      1.00000
      3       5.3201      0.85585
      4       6.6598      0.00000
      5       7.9679      0.00000
      6      11.9743      0.00000
      7      14.4783      0.00000
      8      18.5311      0.00000
      9      24.6576      0.00000
     10      28.7118      0.00000
     11      33.2181      0.00000
     12      37.2471      0.00000

 k-point    59 :      -0.3750   -0.4583    0.2083
  band No.  band energies     occupation 
      1       3.4950      1.00000
      2       3.5771      1.00000
      3       5.2192      0.86989
      4       7.1307      0.00000
      5       7.6603      0.00000
      6      12.6448      0.00000
      7      15.3666      0.00000
      8      16.3432      0.00000
      9      26.2538      0.00000
     10      27.3116      0.00000
     11      32.3212      0.00000
     12      37.3103      0.00000

 k-point    60 :      -0.2917    0.2917    0.2917
  band No.  band energies     occupation 
      1       2.4533      1.00000
      2       4.3485      1.00000
      3       6.0172     -0.11891
      4       6.0172     -0.00037
      5       6.9612      0.00000
      6       8.7721      0.00000
      7      21.2992      0.00000
      8      21.2992      0.00000
      9      23.0504      0.00000
     10      24.9599      0.00000
     11      38.3329      0.00000
     12      40.6776      0.00000

 k-point    61 :      -0.3750    0.3750    0.2917
  band No.  band energies     occupation 
      1       2.9605      1.00000
      2       3.8102      1.00000
      3       6.1596     -0.07902
      4       6.3958      0.00000
      5       7.5101      0.00000
      6       9.9679      0.00000
      7      18.3864      0.00000
      8      19.7623      0.00000
      9      23.1581      0.00000
     10      25.3424      0.00000
     11      34.9187      0.00000
     12      40.0576      0.00000

 k-point    62 :      -0.4583    0.4583    0.2917
  band No.  band energies     occupation 
      1       3.2049      1.00000
      2       3.4832      1.00000
      3       6.1375     -0.00492
      4       6.5705      0.00000
      5       8.0067      0.00000
      6      11.9041      0.00000
      7      15.3791      0.00000
      8      18.8671      0.00000
      9      23.1101      0.00000
     10      26.6737      0.00000
     11      32.4013      0.00000
     12      39.6024      0.00000

 k-point    63 :      -0.3750    0.4583    0.2917
  band No.  band energies     occupation 
      1       3.1303      1.00000
      2       3.4108      1.00000
      3       6.2494     -0.04564
      4       6.9791      0.00000
      5       7.7760      0.00000
      6      11.7313      0.00000
      7      17.1032      0.00000
      8      17.4060      0.00000
      9      23.6672      0.00000
     10      25.1561      0.00000
     11      31.9526      0.00000
     12      40.3170      0.00000

 k-point    64 :      -0.4583   -0.4583    0.2917
  band No.  band energies     occupation 
      1       3.2066      1.00000
      2       3.2307      1.00000
      3       6.2222     -0.02027
      4       7.2529      0.00000
      5       7.8956      0.00000
      6      13.6774      0.00000
      7      14.8753      0.00000
      8      16.8520      0.00000
      9      23.9527      0.00000
     10      25.5617      0.00000
     11      30.5304      0.00000
     12      40.2020      0.00000

 k-point    65 :      -0.3750    0.3750    0.3750
  band No.  band energies     occupation 
      1       2.9895      1.00000
      2       3.3580      1.00000
      3       6.9208     -0.00351
      4       6.9208      0.00000
      5       7.5678      0.00000
      6      11.3579      0.00000
      7      18.0920      0.00000
      8      18.0920      0.00000
      9      22.4056      0.00000
     10      24.0672      0.00000
     11      31.6525      0.00000
     12      42.5562      0.00000

 k-point    66 :      -0.4583    0.4583    0.3750
  band No.  band energies     occupation 
      1       2.9683      1.00000
      2       3.0589      1.00000
      3       7.1285     -0.00467
      4       7.2723      0.00000
      5       7.9385      0.00000
      6      13.3634      0.00000
      7      15.9865      0.00000
      8      17.0941      0.00000
      9      22.6262      0.00000
     10      24.0969      0.00000
     11      29.3542      0.00000
     12      42.8255      0.00000

 k-point    67 :      -0.4583   -0.4583    0.3750
  band No.  band energies     occupation 
      1       2.9119      1.00000
      2       2.9119      1.00000
      3       7.2213     -0.00318
      4       7.8370      0.00000
      5       7.8370      0.00000
      6      15.2415      0.00000
      7      15.2415      0.00000
      8      15.7875      0.00000
      9      23.1726      0.00000
     10      23.1726      0.00000
     11      28.3009      0.00000
     12      43.3317      0.00000

 k-point    68 :      -0.4583    0.4583    0.4583
  band No.  band energies     occupation 
      1       2.7827      1.00000
      2       2.8061      1.00000
      3       7.8149      0.00000
      4       7.8150      0.00000
      5       7.9243      0.00000
      6      14.8715      0.00000
      7      16.0034      0.00000
      8      16.0034      0.00000
      9      22.1467      0.00000
     10      22.7088      0.00000
     11      27.5390      0.00000
     12      44.5603      0.00000


--------------------------------------------------------------------------------------------------------


 soft charge-density along one line, spin component           1
         0         1         2         3         4         5         6         7         8         9
 total charge-density along one line
 
 soft charge-density along one line, spin component           2
         0         1         2         3         4         5         6         7         8         9
 total charge-density along one line
 
 pseudopotential strength for first ion, spin component:           1
 -5.731   0.000   0.000   0.000  -0.000  -6.258   0.000   0.000
  0.000  -5.731  -0.000   0.000   0.000   0.000  -6.258  -0.000
  0.000  -0.000  -5.895  -0.000  -0.000   0.000  -0.000  -6.417
  0.000   0.000  -0.000  -5.731  -0.000   0.000   0.000  -0.000
 -0.000   0.000  -0.000  -0.000  -5.895  -0.000   0.000  -0.000
 -6.258   0.000   0.000   0.000  -0.000  -6.743   0.000   0.000
  0.000  -6.258  -0.000   0.000   0.000   0.000  -6.743  -0.000
  0.000  -0.000  -6.417  -0.000  -0.000   0.000  -0.000  -6.897
  0.000   0.000  -0.000  -6.258  -0.000   0.000   0.000  -0.000
 -0.000   0.000  -0.000  -0.000  -6.417  -0.000   0.000  -0.000
  0.000   0.000   0.000   0.000  -0.000   0.000   0.000   0.000
  0.000   0.000   0.000   0.000  -0.000   0.000   0.000   0.000
  0.000  -0.000  -0.000   0.000  -0.000   0.000  -0.000  -0.000
  0.000   0.000  -0.000   0.000  -0.000   0.000   0.000  -0.000
  0.000   0.000  -0.000  -0.000   0.000   0.000   0.000  -0.000
  0.000  -0.000  -0.000   0.000  -0.000   0.000  -0.000  -0.000
  0.000   0.000  -0.000   0.000  -0.000   0.000   0.000  -0.000
  0.000   0.000  -0.000  -0.000   0.000   0.000   0.000  -0.000
 pseudopotential strength for first ion, spin component:           2
 -4.224  -0.000  -0.000  -0.000   0.000  -4.798  -0.000  -0.000
 -0.000  -4.224   0.000  -0.000  -0.000  -0.000  -4.798   0.000
 -0.000   0.000  -4.010   0.000   0.000  -0.000   0.000  -4.589
 -0.000  -0.000   0.000  -4.224   0.000  -0.000  -0.000   0.000
  0.000  -0.000   0.000   0.000  -4.010   0.000  -0.000   0.000
 -4.798  -0.000  -0.000  -0.000   0.000  -5.329  -0.000  -0.000
 -0.000  -4.798   0.000  -0.000  -0.000  -0.000  -5.329   0.000
 -0.000   0.000  -4.589   0.000   0.000  -0.000   0.000  -5.125
 -0.000  -0.000   0.000  -4.798   0.000  -0.000  -0.000   0.000
  0.000  -0.000   0.000   0.000  -4.589   0.000  -0.000   0.000
  0.000   0.000   0.000   0.000   0.000   0.000   0.000   0.000
  0.000   0.000  -0.000   0.000   0.000   0.000   0.000  -0.000
  0.000  -0.000  -0.000   0.000  -0.000   0.000  -0.000  -0.000
  0.000   0.000  -0.000   0.000  -0.000   0.000   0.000  -0.000
  0.000   0.000  -0.000  -0.000   0.000   0.000   0.000  -0.000
  0.000  -0.000  -0.000   0.000  -0.000   0.000  -0.000  -0.000
  0.000   0.000  -0.000   0.000  -0.000   0.000   0.000  -0.000
  0.000   0.000  -0.000  -0.000   0.000   0.000   0.000  -0.000
 total augmentation occupancy for first ion, spin component:           1
  2.333  -0.000   0.000   0.000   0.000  -1.270  -0.000   0.000   0.000  -0.000   0.000  -0.000   0.000   0.000   0.000   0.000
 -0.000   2.333  -0.000   0.000  -0.000  -0.000  -1.270   0.000   0.000  -0.000   0.000  -0.000   0.000   0.000   0.000   0.000
  0.000  -0.000   3.529   0.000   0.000  -0.000   0.000  -2.236   0.000   0.000  -0.000   0.000   0.000   0.000   0.000   0.000
  0.000   0.000  -0.000   2.333  -0.000   0.000   0.000   0.000  -1.270   0.000  -0.000  -0.000   0.000   0.000   0.000   0.000
  0.000   0.000   0.000  -0.000   3.529   0.000   0.000   0.000  -0.000  -2.236   0.000   0.000   0.000   0.000   0.000   0.000
 -1.270   0.000  -0.000   0.000  -0.000   1.601  -0.000  -0.000   0.000  -0.000   0.000  -0.000   0.000   0.000   0.000   0.000
 -0.000  -1.270   0.000   0.000  -0.000  -0.000   1.601  -0.000   0.000  -0.000   0.000  -0.000   0.000   0.000   0.000   0.000
 -0.000  -0.000  -2.236   0.000   0.000   0.000  -0.000   2.199  -0.000   0.000   0.000  -0.000   0.000   0.000   0.000   0.000
  0.000   0.000   0.000  -1.270   0.000   0.000   0.000  -0.000   1.601   0.000   0.000   0.000   0.000   0.000   0.000   0.000
 -0.000  -0.000   0.000   0.000  -2.236  -0.000  -0.000   0.000  -0.000   2.199   0.000   0.000   0.000   0.000   0.000   0.000
  0.000  -0.000  -0.000   0.000   0.000   0.000   0.000  -0.000   0.000   0.000   2.379  -0.277   0.000   0.000   0.000   0.000
 -0.000   0.000   0.000  -0.000   0.000   0.000   0.000  -0.000  -0.000   0.000  -0.277   0.038   0.000   0.000   0.000   0.000
  0.000   0.000   0.000   0.000   0.000   0.000   0.000   0.000   0.000   0.000   0.000   0.000   0.286   0.000   0.000  -0.025
  0.000   0.000   0.000   0.000   0.000   0.000   0.000   0.000   0.000   0.000   0.000   0.000   0.000   0.286   0.000  -0.000
  0.000   0.000   0.000   0.000   0.000   0.000   0.000   0.000   0.000   0.000   0.000   0.000   0.000  -0.000   0.286  -0.000
  0.000   0.000   0.000   0.000   0.000   0.000   0.000   0.000   0.000   0.000   0.000   0.000  -0.025   0.000   0.000   0.002
  0.000   0.000   0.000   0.000   0.000   0.000   0.000   0.000   0.000   0.000   0.000   0.000   0.000  -0.025   0.000   0.000
  0.000   0.000   0.000   0.000   0.000   0.000   0.000   0.000   0.000   0.000   0.000   0.000   0.000  -0.000  -0.025  -0.000
 total augmentation occupancy for first ion, spin component:           2
  1.981   0.000  -0.000   0.000  -0.000  -0.836   0.000  -0.000   0.000   0.000  -0.000  -0.000   0.000   0.000   0.000   0.000
 -0.000   1.981   0.000  -0.000  -0.000   0.000  -0.836  -0.000   0.000   0.000   0.000   0.000   0.000   0.000   0.000   0.000
  0.000   0.000   3.035   0.000   0.000  -0.000  -0.000  -1.343   0.000   0.000   0.000  -0.000   0.000   0.000   0.000   0.000
  0.000  -0.000   0.000   1.981  -0.000   0.000   0.000  -0.000  -0.836  -0.000   0.000  -0.000   0.000   0.000   0.000   0.000
  0.000   0.000   0.000   0.000   3.035   0.000   0.000   0.000   0.000  -1.343   0.000  -0.000   0.000   0.000   0.000   0.000
 -0.836   0.000  -0.000   0.000  -0.000   0.108   0.000   0.000   0.000  -0.000   0.000   0.000   0.000   0.000   0.000   0.000
  0.000  -0.836  -0.000  -0.000   0.000   0.000   0.108   0.000  -0.000  -0.000   0.000  -0.000   0.000   0.000   0.000   0.000
 -0.000   0.000  -1.343  -0.000   0.000   0.000  -0.000   0.365  -0.000  -0.000  -0.000   0.000   0.000   0.000   0.000   0.000
 -0.000   0.000  -0.000  -0.836   0.000   0.000   0.000  -0.000   0.108  -0.000   0.000  -0.000   0.000   0.000   0.000   0.000
  0.000   0.000   0.000  -0.000  -1.343   0.000  -0.000  -0.000  -0.000   0.365   0.000   0.000   0.000   0.000   0.000   0.000
 -0.000   0.000   0.000   0.000   0.000   0.000   0.000  -0.000   0.000   0.000  -0.340   0.101   0.000   0.000   0.000   0.000
  0.000   0.000  -0.000   0.000  -0.000   0.000  -0.000   0.000  -0.000   0.000   0.101  -0.018   0.000   0.000   0.000   0.000
  0.000   0.000   0.000   0.000   0.000   0.000   0.000   0.000   0.000   0.000   0.000   0.000  -0.040   0.000   0.000   0.006
  0.000   0.000   0.000   0.000   0.000   0.000   0.000   0.000   0.000   0.000   0.000   0.000   0.000  -0.040   0.000   0.000
  0.000   0.000   0.000   0.000   0.000   0.000   0.000   0.000   0.000   0.000   0.000   0.000   0.000   0.000  -0.040  -0.000
  0.000   0.000   0.000   0.000   0.000   0.000   0.000   0.000   0.000   0.000   0.000   0.000   0.006   0.000   0.000  -0.001
  0.000   0.000   0.000   0.000   0.000   0.000   0.000   0.000   0.000   0.000   0.000   0.000   0.000   0.006  -0.000   0.000
  0.000   0.000   0.000   0.000   0.000   0.000   0.000   0.000   0.000   0.000   0.000   0.000  -0.000   0.000   0.006  -0.000


------------------------ aborting loop because EDIFF is reached ----------------------------------------


 


 total charge     
 
# of ion     s       p       d       tot
----------------------------------------
  1        0.478   0.526   6.218   7.223
 


 magnetization (x)
 
# of ion     s       p       d       tot
----------------------------------------
  1       -0.016  -0.062   2.302   2.224
 
    CHARGE:  cpu time    0.0250: real time    0.0173
    FORLOC:  cpu time    0.0000: real time    0.0002
    FORNL :  cpu time    0.0280: real time    0.0282
    STRESS:  cpu time    0.1130: real time    0.1127
    FORCOR:  cpu time    0.0090: real time    0.0094
    FORHAR:  cpu time    0.0010: real time    0.0007
    MIXING:  cpu time    0.0060: real time    0.0064
    OFIELD:  cpu time    0.0000: real time    0.0000

  FORCE on cell =-STRESS in cart. coord.  units (eV):
  Direction    XX          YY          ZZ          XY          YZ          ZX
  --------------------------------------------------------------------------------------
  Alpha Z    59.71178    59.71178    59.71178
  Ewald    -196.13262  -196.13262  -196.13262    -0.00000     0.00000     0.00000
  Hartree    32.15998    32.15998    32.15998    -0.00000    -0.00000    -0.00000
  E(xc)     -39.67270   -39.67270   -39.67270    -0.00000    -0.00000    -0.00000
  Local      58.45833    58.45833    58.45833    -0.00005    -0.00005    -0.00005
  n-local   -27.09620   -25.96143   -25.10705     1.04922    -0.64130    -1.42967
  augment    38.76891    38.76891    38.76891     0.00004     0.00004     0.00004
  Kinetic    72.98734    72.32392    72.13240    -2.25584     1.93792     1.25296
  Fock        0.00000     0.00000     0.00000     0.00000     0.00000     0.00000
  -------------------------------------------------------------------------------------
  Total      -0.28000    -0.28000    -0.28000    -0.00000     0.00000    -0.00000
  in kB     -38.75836   -38.75836   -38.75836    -0.00000     0.00000    -0.00000
  external pressure =      -38.76 kB  Pullay stress =        0.00 kB


 VOLUME and BASIS-vectors are now :
 -----------------------------------------------------------------------------
  energy-cutoff  :      300.00
  volume of cell :       11.57
      direct lattice vectors                 reciprocal lattice vectors
    -1.425000000  1.425000000  1.425000000     0.000000000  0.350877193  0.350877193
     1.425000000 -1.425000000  1.425000000     0.350877193  0.000000000  0.350877193
     1.425000000  1.425000000 -1.425000000     0.350877193  0.350877193  0.000000000

  length of vectors
     2.468172401  2.468172401  2.468172401     0.496215285  0.496215285  0.496215285


 FORCES acting on ions
    electron-ion (+dipol)            ewald-force                    non-local-force                 convergence-correction
 -----------------------------------------------------------------------------------------------
   -.120E-13 -.847E-14 0.116E-13   0.131E-16 0.134E-14 -.680E-15   0.517E-25 0.517E-25 -.517E-25   -.936E-14 -.701E-14 0.336E-14
 -----------------------------------------------------------------------------------------------
   -.120E-13 -.847E-14 0.116E-13   0.131E-16 0.134E-14 -.680E-15   0.517E-25 0.517E-25 -.517E-25   -.936E-14 -.701E-14 0.336E-14
 
 
 POSITION                                       TOTAL-FORCE (eV/Angst)
 -----------------------------------------------------------------------------------
      0.00000      0.00000      0.00000         0.000000      0.000000      0.000000
 -----------------------------------------------------------------------------------
    total drift:                               -0.000000     -0.000000      0.000000


--------------------------------------------------------------------------------------------------------



  FREE ENERGIE OF THE ION-ELECTRON SYSTEM (eV)
  ---------------------------------------------------
  free  energy   TOTEN  =        -8.24314412 eV

  energy  without entropy=       -8.24314412  energy(sigma->0) =       -8.24314412
 


--------------------------------------------------------------------------------------------------------


    POTLOK:  cpu time    0.0280: real time    0.0277


--------------------------------------------------------------------------------------------------------


 writing wavefunctions
     LOOP+:  cpu time  127.5316: real time   79.0670
    4ORBIT:  cpu time    0.0000: real time    0.0000
 


 total charge     
 
# of ion     s       p       d       tot
----------------------------------------
  1        0.478   0.526   6.218   7.223
 


 magnetization (x)
 
# of ion     s       p       d       tot
----------------------------------------
  1       -0.016  -0.062   2.302   2.224
 
 BZINTS: Fermi energy:  5.591075;  8.000000 electrons
         Band energy:  27.401964;  BLOECHL correction: -0.032208

 total amount of memory used by VASP on root node    33424. kBytes
========================================================================

   base      :      30000. kBytes
   nonl-proj :       1451. kBytes
   fftplans  :        204. kBytes
   grid      :        642. kBytes
   one-center:         31. kBytes
   wavefun   :       1096. kBytes
 
  
  
 General timing and accounting informations for this job:
 ========================================================
  
                  Total CPU time used (sec):      128.666
                            User time (sec):      116.420
                          System time (sec):       12.246
                         Elapsed time (sec):       80.999
  
                   Maximum memory used (kb):       32744.
                   Average memory used (kb):           0.
  
                          Minor page faults:        14959
                          Major page faults:            7
                 Voluntary context switches:         1101
