PROCAR lm decomposed
# of k-points:   68         # of bands:  12         # of ions:   1

 k-point    1 :    0.04166667 0.04166667 0.04166667     weight = 0.00462963

band   1 # energy   -2.25785650 # occ.  1.00000000
 
ion      s     py     pz     px    dxy    dyz    dz2    dxz    dx2    tot
  1  0.687  0.010  0.010  0.010  0.000  0.000  0.000  0.000  0.000  0.717
 
band   2 # energy    3.26006814 # occ.  1.00000000
 
ion      s     py     pz     px    dxy    dyz    dz2    dxz    dx2    tot
  1  0.000  0.000  0.001  0.000  0.616  0.121  0.006  0.228  0.000  0.972
 
band   3 # energy    3.26006814 # occ.  1.00000000
 
ion      s     py     pz     px    dxy    dyz    dz2    dxz    dx2    tot
  1  0.000  0.000  0.000  0.001  0.027  0.522  0.000  0.415  0.006  0.972
 
band   4 # energy    3.60657277 # occ.  1.00000000
 
ion      s     py     pz     px    dxy    dyz    dz2    dxz    dx2    tot
  1  0.000  0.001  0.001  0.001  0.323  0.323  0.000  0.323  0.000  0.974
 
band   5 # energy    4.52654666 # occ.  1.00000000
 
ion      s     py     pz     px    dxy    dyz    dz2    dxz    dx2    tot
  1  0.000  0.000  0.000  0.000  0.005  0.001  0.957  0.001  0.005  0.968
 
band   6 # energy    4.52654666 # occ.  1.00000000
 
ion      s     py     pz     px    dxy    dyz    dz2    dxz    dx2    tot
  1  0.000  0.000  0.000  0.000  0.000  0.003  0.005  0.004  0.957  0.968
 
band   7 # energy   28.56405278 # occ.  0.00000000
 
ion      s     py     pz     px    dxy    dyz    dz2    dxz    dx2    tot
  1  0.000  0.012  0.029  0.009  0.108  0.033  0.138  0.045  0.020  0.392
 
band   8 # energy   28.56405278 # occ.  0.00000000
 
ion      s     py     pz     px    dxy    dyz    dz2    dxz    dx2    tot
  1  0.000  0.021  0.004  0.024  0.016  0.091  0.020  0.079  0.138  0.392
 
band   9 # energy   30.87254869 # occ.  0.00000000
 
ion      s     py     pz     px    dxy    dyz    dz2    dxz    dx2    tot
  1  0.000  0.000  0.000  0.000  0.000  0.000  0.000  0.000  0.000  0.000
 
band  10 # energy   33.08368119 # occ.  0.00000000
 
ion      s     py     pz     px    dxy    dyz    dz2    dxz    dx2    tot
  1  0.037  0.160  0.160  0.160  0.192  0.192  0.000  0.192  0.000  1.094
 
band  11 # energy   35.60089867 # occ.  0.00000000
 
ion      s     py     pz     px    dxy    dyz    dz2    dxz    dx2    tot
  1  0.000  0.035  0.133  0.144  0.003  0.003  0.092  0.001  0.052  0.461
 
band  12 # energy   35.60089867 # occ.  0.00000000
 
ion      s     py     pz     px    dxy    dyz    dz2    dxz    dx2    tot
  1  0.000  0.173  0.075  0.064  0.002  0.001  0.052  0.004  0.092  0.461
 

 k-point    2 :    0.12500000 0.04166667 0.04166667     weight = 0.01388889

band   1 # energy   -1.46116562 # occ.  1.00000000
 
ion      s     py     pz     px    dxy    dyz    dz2    dxz    dx2    tot
  1  0.627  0.035  0.035  0.009  0.002  0.009  0.000  0.002  0.001  0.720
 
band   2 # energy    3.04620847 # occ.  1.00000000
 
ion      s     py     pz     px    dxy    dyz    dz2    dxz    dx2    tot
  1  0.000  0.001  0.001  0.000  0.476  0.000  0.010  0.476  0.003  0.966
 
band   3 # energy    3.16464341 # occ.  1.00000000
 
ion      s     py     pz     px    dxy    dyz    dz2    dxz    dx2    tot
  1  0.001  0.004  0.004  0.001  0.081  0.722  0.016  0.081  0.049  0.959
 
band   4 # energy    4.06923833 # occ.  1.00000000
 
ion      s     py     pz     px    dxy    dyz    dz2    dxz    dx2    tot
  1  0.002  0.003  0.003  0.006  0.398  0.160  0.000  0.398  0.001  0.973
 
band   5 # energy    4.41795264 # occ.  1.00000000
 
ion      s     py     pz     px    dxy    dyz    dz2    dxz    dx2    tot
  1  0.000  0.000  0.000  0.000  0.003  0.069  0.223  0.003  0.669  0.967
 
band   6 # energy    4.57345045 # occ.  1.00004733
 
ion      s     py     pz     px    dxy    dyz    dz2    dxz    dx2    tot
  1  0.000  0.000  0.000  0.000  0.007  0.000  0.718  0.007  0.239  0.971
 
band   7 # energy   25.17488600 # occ.  0.00000000
 
ion      s     py     pz     px    dxy    dyz    dz2    dxz    dx2    tot
  1  0.015  0.071  0.071  0.021  0.009  0.270  0.046  0.009  0.138  0.651
 
band   8 # energy   27.01220272 # occ.  0.00000000
 
ion      s     py     pz     px    dxy    dyz    dz2    dxz    dx2    tot
  1  0.000  0.063  0.063  0.000  0.126  0.000  0.110  0.126  0.037  0.525
 
band   9 # energy   30.18027574 # occ.  0.00000000
 
ion      s     py     pz     px    dxy    dyz    dz2    dxz    dx2    tot
  1  0.073  0.094  0.094  0.312  0.164  0.045  0.005  0.164  0.016  0.969
 
band  10 # energy   31.06097355 # occ.  0.00000000
 
ion      s     py     pz     px    dxy    dyz    dz2    dxz    dx2    tot
  1  0.000  0.001  0.001  0.000  0.084  0.000  0.015  0.084  0.005  0.190
 
band  11 # energy   35.37301198 # occ.  0.00000000
 
ion      s     py     pz     px    dxy    dyz    dz2    dxz    dx2    tot
  1  0.000  0.134  0.134  0.000  0.078  0.000  0.017  0.078  0.006  0.445
 
band  12 # energy   35.43841736 # occ.  0.00000000
 
ion      s     py     pz     px    dxy    dyz    dz2    dxz    dx2    tot
  1  0.022  0.087  0.087  0.188  0.081  0.137  0.050  0.081  0.151  0.883
 

 k-point    3 :    0.20833333 0.04166667 0.04166667     weight = 0.01388889

band   1 # energy   -0.32274332 # occ.  1.00000000
 
ion      s     py     pz     px    dxy    dyz    dz2    dxz    dx2    tot
  1  0.512  0.062  0.062  0.008  0.003  0.067  0.005  0.003  0.014  0.737
 
band   2 # energy    2.77644074 # occ.  1.00000000
 
ion      s     py     pz     px    dxy    dyz    dz2    dxz    dx2    tot
  1  0.000  0.001  0.001  0.000  0.473  0.000  0.008  0.473  0.003  0.959
 
band   3 # energy    3.08384835 # occ.  1.00000000
 
ion      s     py     pz     px    dxy    dyz    dz2    dxz    dx2    tot
  1  0.019  0.024  0.024  0.001  0.055  0.571  0.044  0.055  0.133  0.928
 
band   4 # energy    4.41643786 # occ.  1.00000000
 
ion      s     py     pz     px    dxy    dyz    dz2    dxz    dx2    tot
  1  0.001  0.000  0.000  0.000  0.017  0.179  0.189  0.017  0.566  0.971
 
band   5 # energy    4.63082385 # occ.  1.00000000
 
ion      s     py     pz     px    dxy    dyz    dz2    dxz    dx2    tot
  1  0.000  0.000  0.000  0.000  0.006  0.000  0.721  0.006  0.240  0.975
 
band   6 # energy    4.73373943 # occ.  1.05057293
 
ion      s     py     pz     px    dxy    dyz    dz2    dxz    dx2    tot
  1  0.007  0.007  0.007  0.009  0.408  0.124  0.000  0.408  0.001  0.971
 
band   7 # energy   21.32810672 # occ.  0.00000000
 
ion      s     py     pz     px    dxy    dyz    dz2    dxz    dx2    tot
  1  0.072  0.122  0.122  0.010  0.003  0.298  0.034  0.003  0.103  0.769
 
band   8 # energy   25.45246336 # occ.  0.00000000
 
ion      s     py     pz     px    dxy    dyz    dz2    dxz    dx2    tot
  1  0.000  0.097  0.097  0.000  0.117  0.000  0.077  0.117  0.026  0.531
 
band   9 # energy   27.93447190 # occ.  0.00000000
 
ion      s     py     pz     px    dxy    dyz    dz2    dxz    dx2    tot
  1  0.081  0.038  0.038  0.449  0.121  0.001  0.011  0.121  0.032  0.891
 
band  10 # energy   30.69247244 # occ.  0.00000000
 
ion      s     py     pz     px    dxy    dyz    dz2    dxz    dx2    tot
  1  0.000  0.005  0.005  0.000  0.256  0.000  0.016  0.256  0.005  0.544
 
band  11 # energy   34.44077440 # occ.  0.00000000
 
ion      s     py     pz     px    dxy    dyz    dz2    dxz    dx2    tot
  1  0.066  0.068  0.068  0.133  0.045  0.042  0.099  0.045  0.296  0.860
 
band  12 # energy   36.55617105 # occ.  0.00000000
 
ion      s     py     pz     px    dxy    dyz    dz2    dxz    dx2    tot
  1  0.000  0.121  0.121  0.000  0.059  0.000  0.011  0.059  0.004  0.374
 

 k-point    4 :    0.29166667 0.04166667 0.04166667     weight = 0.01388889

band   1 # energy    0.62748323 # occ.  1.00000000
 
ion      s     py     pz     px    dxy    dyz    dz2    dxz    dx2    tot
  1  0.312  0.046  0.046  0.008  0.001  0.275  0.028  0.001  0.084  0.800
 
band   2 # energy    2.52429469 # occ.  1.00000000
 
ion      s     py     pz     px    dxy    dyz    dz2    dxz    dx2    tot
  1  0.000  0.001  0.001  0.000  0.473  0.000  0.005  0.473  0.002  0.955
 
band   3 # energy    3.47930322 # occ.  1.00000000
 
ion      s     py     pz     px    dxy    dyz    dz2    dxz    dx2    tot
  1  0.085  0.094  0.094  0.000  0.074  0.233  0.051  0.074  0.152  0.857
 
band   4 # energy    4.52196415 # occ.  1.00000000
 
ion      s     py     pz     px    dxy    dyz    dz2    dxz    dx2    tot
  1  0.001  0.002  0.002  0.000  0.016  0.309  0.157  0.016  0.472  0.977
 
band   5 # energy    4.68969887 # occ.  1.00177649
 
ion      s     py     pz     px    dxy    dyz    dz2    dxz    dx2    tot
  1  0.000  0.000  0.000  0.000  0.003  0.000  0.729  0.003  0.243  0.979
 
band   6 # energy    5.52185886 # occ.  0.54457437
 
ion      s     py     pz     px    dxy    dyz    dz2    dxz    dx2    tot
  1  0.021  0.022  0.022  0.009  0.396  0.093  0.000  0.396  0.001  0.960
 
band   7 # energy   17.57499457 # occ.  0.00000000
 
ion      s     py     pz     px    dxy    dyz    dz2    dxz    dx2    tot
  1  0.169  0.124  0.124  0.006  0.002  0.293  0.026  0.002  0.077  0.822
 
band   8 # energy   24.14655395 # occ.  0.00000000
 
ion      s     py     pz     px    dxy    dyz    dz2    dxz    dx2    tot
  1  0.000  0.120  0.120  0.000  0.101  0.000  0.038  0.101  0.013  0.494
 
band   9 # energy   26.17355654 # occ.  0.00000000
 
ion      s     py     pz     px    dxy    dyz    dz2    dxz    dx2    tot
  1  0.076  0.012  0.012  0.555  0.065  0.004  0.010  0.065  0.031  0.830
 
band  10 # energy   30.26182021 # occ.  0.00000000
 
ion      s     py     pz     px    dxy    dyz    dz2    dxz    dx2    tot
  1  0.000  0.006  0.006  0.000  0.386  0.000  0.007  0.386  0.002  0.793
 
band  11 # energy   33.93000804 # occ.  0.00000000
 
ion      s     py     pz     px    dxy    dyz    dz2    dxz    dx2    tot
  1  0.117  0.039  0.039  0.100  0.018  0.002  0.136  0.018  0.408  0.877
 
band  12 # energy   38.72878375 # occ.  0.00000000
 
ion      s     py     pz     px    dxy    dyz    dz2    dxz    dx2    tot
  1  0.000  0.110  0.110  0.000  0.036  0.000  0.090  0.036  0.030  0.411
 

 k-point    5 :    0.37500000 0.04166667 0.04166667     weight = 0.01388889

band   1 # energy    0.89916316 # occ.  1.00000000
 
ion      s     py     pz     px    dxy    dyz    dz2    dxz    dx2    tot
  1  0.161  0.010  0.010  0.007  0.000  0.444  0.057  0.000  0.171  0.859
 
band   2 # energy    2.34815666 # occ.  1.00000000
 
ion      s     py     pz     px    dxy    dyz    dz2    dxz    dx2    tot
  1  0.000  0.002  0.002  0.000  0.474  0.000  0.001  0.474  0.000  0.952
 
band   3 # energy    4.46542379 # occ.  1.00000000
 
ion      s     py     pz     px    dxy    dyz    dz2    dxz    dx2    tot
  1  0.056  0.082  0.082  0.000  0.079  0.039  0.118  0.079  0.354  0.889
 
band   4 # energy    4.70786441 # occ.  1.00000000
 
ion      s     py     pz     px    dxy    dyz    dz2    dxz    dx2    tot
  1  0.007  0.072  0.072  0.000  0.119  0.300  0.058  0.119  0.174  0.922
 
band   5 # energy    4.73636109 # occ.  1.04996739
 
ion      s     py     pz     px    dxy    dyz    dz2    dxz    dx2    tot
  1  0.000  0.000  0.000  0.000  0.001  0.000  0.735  0.001  0.245  0.982
 
band   6 # energy    6.43573295 # occ. -0.04412155
 
ion      s     py     pz     px    dxy    dyz    dz2    dxz    dx2    tot
  1  0.039  0.096  0.096  0.004  0.297  0.068  0.001  0.297  0.002  0.900
 
band   7 # energy   14.37924621 # occ.  0.00000000
 
ion      s     py     pz     px    dxy    dyz    dz2    dxz    dx2    tot
  1  0.308  0.069  0.069  0.006  0.002  0.321  0.022  0.002  0.066  0.865
 
band   8 # energy   23.28665765 # occ.  0.00000000
 
ion      s     py     pz     px    dxy    dyz    dz2    dxz    dx2    tot
  1  0.000  0.133  0.133  0.000  0.090  0.000  0.010  0.090  0.003  0.459
 
band   9 # energy   24.98329229 # occ.  0.00000000
 
ion      s     py     pz     px    dxy    dyz    dz2    dxz    dx2    tot
  1  0.071  0.002  0.002  0.624  0.018  0.010  0.009  0.018  0.027  0.782
 
band  10 # energy   29.98819838 # occ.  0.00000000
 
ion      s     py     pz     px    dxy    dyz    dz2    dxz    dx2    tot
  1  0.000  0.006  0.006  0.000  0.457  0.000  0.002  0.457  0.001  0.928
 
band  11 # energy   33.76660206 # occ.  0.00000000
 
ion      s     py     pz     px    dxy    dyz    dz2    dxz    dx2    tot
  1  0.162  0.012  0.012  0.083  0.004  0.008  0.162  0.004  0.487  0.933
 
band  12 # energy   40.03621058 # occ.  0.00000000
 
ion      s     py     pz     px    dxy    dyz    dz2    dxz    dx2    tot
  1  0.024  0.022  0.022  0.001  0.002  0.137  0.000  0.002  0.000  0.211
 

 k-point    6 :    0.45833333 0.04166667 0.04166667     weight = 0.00694444

band   1 # energy    0.90953978 # occ.  1.00000000
 
ion      s     py     pz     px    dxy    dyz    dz2    dxz    dx2    tot
  1  0.125  0.000  0.000  0.007  0.000  0.477  0.066  0.000  0.198  0.873
 
band   2 # energy    2.28512810 # occ.  1.00000000
 
ion      s     py     pz     px    dxy    dyz    dz2    dxz    dx2    tot
  1  0.000  0.002  0.002  0.000  0.474  0.000  0.000  0.474  0.000  0.951
 
band   3 # energy    4.62962792 # occ.  1.00000000
 
ion      s     py     pz     px    dxy    dyz    dz2    dxz    dx2    tot
  1  0.012  0.000  0.000  0.000  0.000  0.306  0.165  0.000  0.496  0.980
 
band   4 # energy    4.75439862 # occ.  1.00000000
 
ion      s     py     pz     px    dxy    dyz    dz2    dxz    dx2    tot
  1  0.000  0.000  0.000  0.000  0.000  0.000  0.738  0.000  0.246  0.984
 
band   5 # energy    5.11508474 # occ.  1.04129882
 
ion      s     py     pz     px    dxy    dyz    dz2    dxz    dx2    tot
  1  0.000  0.137  0.137  0.000  0.297  0.000  0.000  0.297  0.000  0.868
 
band   6 # energy    7.13480819 # occ. -0.00035408
 
ion      s     py     pz     px    dxy    dyz    dz2    dxz    dx2    tot
  1  0.000  0.206  0.206  0.000  0.203  0.000  0.000  0.203  0.000  0.818
 
band   7 # energy   12.84014025 # occ.  0.00000000
 
ion      s     py     pz     px    dxy    dyz    dz2    dxz    dx2    tot
  1  0.428  0.000  0.000  0.007  0.000  0.376  0.023  0.000  0.068  0.902
 
band   8 # energy   22.98421265 # occ.  0.00000000
 
ion      s     py     pz     px    dxy    dyz    dz2    dxz    dx2    tot
  1  0.000  0.137  0.137  0.000  0.087  0.000  0.000  0.087  0.000  0.448
 
band   9 # energy   24.55611711 # occ.  0.00000000
 
ion      s     py     pz     px    dxy    dyz    dz2    dxz    dx2    tot
  1  0.069  0.000  0.000  0.648  0.000  0.013  0.008  0.000  0.025  0.763
 
band  10 # energy   29.88803666 # occ.  0.00000000
 
ion      s     py     pz     px    dxy    dyz    dz2    dxz    dx2    tot
  1  0.000  0.006  0.006  0.000  0.483  0.000  0.000  0.483  0.000  0.977
 
band  11 # energy   33.74612150 # occ.  0.00000000
 
ion      s     py     pz     px    dxy    dyz    dz2    dxz    dx2    tot
  1  0.180  0.000  0.000  0.078  0.000  0.019  0.172  0.000  0.516  0.965
 
band  12 # energy   39.97261784 # occ.  0.00000000
 
ion      s     py     pz     px    dxy    dyz    dz2    dxz    dx2    tot
  1  0.000  0.034  0.034  0.000  0.003  0.000  0.000  0.003  0.000  0.074
 

 k-point    7 :   -0.04166667 0.04166667 0.04166667     weight = 0.00347222

band   1 # energy   -2.53703584 # occ.  1.00000000
 
ion      s     py     pz     px    dxy    dyz    dz2    dxz    dx2    tot
  1  0.706  0.000  0.000  0.010  0.000  0.000  0.000  0.000  0.000  0.716
 
band   2 # energy    3.34340520 # occ.  1.00000000
 
ion      s     py     pz     px    dxy    dyz    dz2    dxz    dx2    tot
  1  0.000  0.000  0.000  0.000  0.487  0.000  0.000  0.487  0.000  0.974
 
band   3 # energy    3.34340749 # occ.  1.00000000
 
ion      s     py     pz     px    dxy    dyz    dz2    dxz    dx2    tot
  1  0.000  0.000  0.000  0.000  0.487  0.000  0.000  0.487  0.000  0.974
 
band   4 # energy    3.38251256 # occ.  1.00000000
 
ion      s     py     pz     px    dxy    dyz    dz2    dxz    dx2    tot
  1  0.000  0.000  0.000  0.000  0.000  0.975  0.000  0.000  0.000  0.975
 
band   5 # energy    4.50677849 # occ.  1.00000000
 
ion      s     py     pz     px    dxy    dyz    dz2    dxz    dx2    tot
  1  0.000  0.000  0.000  0.000  0.000  0.000  0.725  0.000  0.242  0.967
 
band   6 # energy    4.59372131 # occ.  1.00000000
 
ion      s     py     pz     px    dxy    dyz    dz2    dxz    dx2    tot
  1  0.000  0.000  0.000  0.000  0.000  0.000  0.243  0.000  0.728  0.971
 
band   7 # energy   29.56722535 # occ.  0.00000000
 
ion      s     py     pz     px    dxy    dyz    dz2    dxz    dx2    tot
  1  0.000  0.000  0.000  0.000  0.000  0.000  0.119  0.000  0.040  0.159
 
band   8 # energy   30.34141776 # occ.  0.00000000
 
ion      s     py     pz     px    dxy    dyz    dz2    dxz    dx2    tot
  1  0.000  0.003  0.003  0.000  0.057  0.000  0.000  0.057  0.000  0.120
 
band   9 # energy   30.34141977 # occ.  0.00000000
 
ion      s     py     pz     px    dxy    dyz    dz2    dxz    dx2    tot
  1  0.000  0.003  0.003  0.000  0.057  0.000  0.000  0.057  0.000  0.120
 
band  10 # energy   34.18010393 # occ.  0.00000000
 
ion      s     py     pz     px    dxy    dyz    dz2    dxz    dx2    tot
  1  0.007  0.000  0.000  0.237  0.000  0.000  0.103  0.000  0.310  0.657
 
band  11 # energy   35.89575276 # occ.  0.00000000
 
ion      s     py     pz     px    dxy    dyz    dz2    dxz    dx2    tot
  1  0.000  0.131  0.299  0.000  0.207  0.000  0.000  0.474  0.000  1.111
 
band  12 # energy   35.89575343 # occ.  0.00000000
 
ion      s     py     pz     px    dxy    dyz    dz2    dxz    dx2    tot
  1  0.000  0.299  0.131  0.000  0.474  0.000  0.000  0.207  0.000  1.111
 

 k-point    8 :    0.12500000 0.12500000 0.04166667     weight = 0.01388889

band   1 # energy   -0.49820176 # occ.  1.00000000
 
ion      s     py     pz     px    dxy    dyz    dz2    dxz    dx2    tot
  1  0.543  0.031  0.071  0.031  0.005  0.021  0.005  0.021  0.000  0.729
 
band   2 # energy    2.86906325 # occ.  1.00000000
 
ion      s     py     pz     px    dxy    dyz    dz2    dxz    dx2    tot
  1  0.002  0.000  0.010  0.000  0.555  0.178  0.033  0.178  0.000  0.955
 
band   3 # energy    2.89226612 # occ.  1.00000000
 
ion      s     py     pz     px    dxy    dyz    dz2    dxz    dx2    tot
  1  0.000  0.007  0.000  0.007  0.000  0.407  0.000  0.407  0.122  0.948
 
band   4 # energy    4.40348723 # occ.  1.00000000
 
ion      s     py     pz     px    dxy    dyz    dz2    dxz    dx2    tot
  1  0.000  0.000  0.000  0.000  0.000  0.067  0.000  0.067  0.834  0.968
 
band   5 # energy    4.62598649 # occ.  1.00000000
 
ion      s     py     pz     px    dxy    dyz    dz2    dxz    dx2    tot
  1  0.001  0.000  0.000  0.000  0.001  0.037  0.901  0.037  0.000  0.975
 
band   6 # energy    4.73839322 # occ.  1.06164935
 
ion      s     py     pz     px    dxy    dyz    dz2    dxz    dx2    tot
  1  0.013  0.009  0.010  0.009  0.403  0.245  0.032  0.245  0.000  0.967
 
band   7 # energy   23.11826271 # occ.  0.00000000
 
ion      s     py     pz     px    dxy    dyz    dz2    dxz    dx2    tot
  1  0.000  0.107  0.000  0.107  0.000  0.157  0.000  0.157  0.181  0.708
 
band   8 # energy   24.03591334 # occ.  0.00000000
 
ion      s     py     pz     px    dxy    dyz    dz2    dxz    dx2    tot
  1  0.052  0.002  0.239  0.002  0.084  0.116  0.081  0.116  0.000  0.692
 
band   9 # energy   27.29771393 # occ.  0.00000000
 
ion      s     py     pz     px    dxy    dyz    dz2    dxz    dx2    tot
  1  0.118  0.225  0.019  0.225  0.192  0.019  0.032  0.019  0.000  0.850
 
band  10 # energy   32.01013462 # occ.  0.00000000
 
ion      s     py     pz     px    dxy    dyz    dz2    dxz    dx2    tot
  1  0.000  0.006  0.000  0.006  0.000  0.063  0.000  0.063  0.051  0.188
 
band  11 # energy   35.89099358 # occ.  0.00000000
 
ion      s     py     pz     px    dxy    dyz    dz2    dxz    dx2    tot
  1  0.015  0.024  0.120  0.024  0.273  0.133  0.004  0.133  0.000  0.727
 
band  12 # energy   37.08213252 # occ.  0.00000000
 
ion      s     py     pz     px    dxy    dyz    dz2    dxz    dx2    tot
  1  0.000  0.141  0.000  0.141  0.000  0.101  0.000  0.101  0.313  0.797
 

 k-point    9 :    0.20833333 0.12500000 0.04166667     weight = 0.02777778

band   1 # energy    0.61385207 # occ.  1.00000000
 
ion      s     py     pz     px    dxy    dyz    dz2    dxz    dx2    tot
  1  0.392  0.045  0.084  0.029  0.003  0.142  0.027  0.031  0.012  0.764
 
band   2 # energy    2.60320037 # occ.  1.00000000
 
ion      s     py     pz     px    dxy    dyz    dz2    dxz    dx2    tot
  1  0.000  0.008  0.003  0.004  0.294  0.032  0.006  0.529  0.071  0.946
 
band   3 # energy    2.83773740 # occ.  1.00000000
 
ion      s     py     pz     px    dxy    dyz    dz2    dxz    dx2    tot
  1  0.025  0.025  0.038  0.001  0.300  0.384  0.012  0.016  0.119  0.919
 
band   4 # energy    4.44690696 # occ.  1.00000000
 
ion      s     py     pz     px    dxy    dyz    dz2    dxz    dx2    tot
  1  0.000  0.000  0.000  0.000  0.003  0.163  0.006  0.064  0.735  0.973
 
band   5 # energy    4.71410158 # occ.  1.00000000
 
ion      s     py     pz     px    dxy    dyz    dz2    dxz    dx2    tot
  1  0.004  0.000  0.000  0.000  0.001  0.025  0.907  0.029  0.013  0.979
 
band   6 # energy    5.62876797 # occ.  0.40861118
 
ion      s     py     pz     px    dxy    dyz    dz2    dxz    dx2    tot
  1  0.036  0.021  0.029  0.015  0.363  0.189  0.017  0.283  0.000  0.953
 
band   7 # energy   19.67785111 # occ.  0.00000000
 
ion      s     py     pz     px    dxy    dyz    dz2    dxz    dx2    tot
  1  0.083  0.158  0.090  0.036  0.009  0.280  0.012  0.016  0.103  0.786
 
band   8 # energy   22.25966511 # occ.  0.00000000
 
ion      s     py     pz     px    dxy    dyz    dz2    dxz    dx2    tot
  1  0.064  0.028  0.169  0.084  0.060  0.002  0.020  0.235  0.046  0.707
 
band   9 # energy   25.40095082 # occ.  0.00000000
 
ion      s     py     pz     px    dxy    dyz    dz2    dxz    dx2    tot
  1  0.116  0.142  0.000  0.305  0.168  0.002  0.035  0.003  0.004  0.775
 
band  10 # energy   32.16058713 # occ.  0.00000000
 
ion      s     py     pz     px    dxy    dyz    dz2    dxz    dx2    tot
  1  0.004  0.003  0.006  0.013  0.088  0.018  0.000  0.211  0.092  0.436
 
band  11 # energy   36.43507971 # occ.  0.00000000
 
ion      s     py     pz     px    dxy    dyz    dz2    dxz    dx2    tot
  1  0.002  0.108  0.027  0.014  0.301  0.181  0.002  0.048  0.146  0.830
 
band  12 # energy   37.43688437 # occ.  0.00000000
 
ion      s     py     pz     px    dxy    dyz    dz2    dxz    dx2    tot
  1  0.054  0.009  0.058  0.141  0.000  0.006  0.110  0.063  0.188  0.630
 

 k-point   10 :    0.29166667 0.12500000 0.04166667     weight = 0.02777778

band   1 # energy    1.18374016 # occ.  1.00000000
 
ion      s     py     pz     px    dxy    dyz    dz2    dxz    dx2    tot
  1  0.188  0.015  0.034  0.027  0.001  0.409  0.060  0.013  0.098  0.843
 
band   2 # energy    2.40267032 # occ.  1.00000000
 
ion      s     py     pz     px    dxy    dyz    dz2    dxz    dx2    tot
  1  0.000  0.009  0.004  0.002  0.390  0.004  0.002  0.502  0.032  0.945
 
band   3 # energy    3.36363774 # occ.  1.00000000
 
ion      s     py     pz     px    dxy    dyz    dz2    dxz    dx2    tot
  1  0.062  0.086  0.108  0.000  0.273  0.091  0.008  0.094  0.141  0.863
 
band   4 # energy    4.55961397 # occ.  1.00000000
 
ion      s     py     pz     px    dxy    dyz    dz2    dxz    dx2    tot
  1  0.001  0.002  0.001  0.001  0.008  0.250  0.039  0.048  0.626  0.977
 
band   5 # energy    4.79210841 # occ.  1.00072146
 
ion      s     py     pz     px    dxy    dyz    dz2    dxz    dx2    tot
  1  0.007  0.002  0.003  0.000  0.012  0.011  0.845  0.051  0.048  0.980
 
band   6 # energy    6.78142005 # occ. -0.03962983
 
ion      s     py     pz     px    dxy    dyz    dz2    dxz    dx2    tot
  1  0.067  0.061  0.082  0.013  0.283  0.131  0.025  0.249  0.000  0.912
 
band   7 # energy   16.13248159 # occ.  0.00000000
 
ion      s     py     pz     px    dxy    dyz    dz2    dxz    dx2    tot
  1  0.203  0.138  0.081  0.024  0.008  0.281  0.010  0.008  0.074  0.829
 
band   8 # energy   21.17765772 # occ.  0.00000000
 
ion      s     py     pz     px    dxy    dyz    dz2    dxz    dx2    tot
  1  0.070  0.056  0.131  0.127  0.070  0.001  0.002  0.199  0.042  0.698
 
band   9 # energy   24.12694174 # occ.  0.00000000
 
ion      s     py     pz     px    dxy    dyz    dz2    dxz    dx2    tot
  1  0.107  0.096  0.016  0.348  0.115  0.017  0.022  0.002  0.007  0.731
 
band  10 # energy   31.94821003 # occ.  0.00000000
 
ion      s     py     pz     px    dxy    dyz    dz2    dxz    dx2    tot
  1  0.010  0.000  0.008  0.011  0.220  0.002  0.002  0.302  0.087  0.642
 
band  11 # energy   36.62364162 # occ.  0.00000000
 
ion      s     py     pz     px    dxy    dyz    dz2    dxz    dx2    tot
  1  0.035  0.072  0.000  0.102  0.156  0.022  0.064  0.010  0.413  0.874
 
band  12 # energy   38.35581502 # occ.  0.00000000
 
ion      s     py     pz     px    dxy    dyz    dz2    dxz    dx2    tot
  1  0.066  0.032  0.018  0.040  0.035  0.135  0.185  0.016  0.002  0.529
 

 k-point   11 :    0.37500000 0.12500000 0.04166667     weight = 0.02777778

band   1 # energy    1.22123689 # occ.  1.00000000
 
ion      s     py     pz     px    dxy    dyz    dz2    dxz    dx2    tot
  1  0.109  0.000  0.005  0.025  0.002  0.500  0.064  0.004  0.167  0.876
 
band   2 # energy    2.29993897 # occ.  1.00000000
 
ion      s     py     pz     px    dxy    dyz    dz2    dxz    dx2    tot
  1  0.000  0.007  0.006  0.002  0.444  0.000  0.000  0.475  0.011  0.945
 
band   3 # energy    3.98445121 # occ.  1.00000000
 
ion      s     py     pz     px    dxy    dyz    dz2    dxz    dx2    tot
  1  0.010  0.101  0.109  0.000  0.227  0.002  0.143  0.160  0.126  0.878
 
band   4 # energy    4.63655073 # occ.  1.00000000
 
ion      s     py     pz     px    dxy    dyz    dz2    dxz    dx2    tot
  1  0.007  0.001  0.000  0.001  0.000  0.282  0.168  0.014  0.505  0.979
 
band   5 # energy    4.90524828 # occ.  1.01520580
 
ion      s     py     pz     px    dxy    dyz    dz2    dxz    dx2    tot
  1  0.003  0.016  0.018  0.000  0.101  0.000  0.579  0.124  0.132  0.972
 
band   6 # energy    8.12638637 # occ. -0.00010925
 
ion      s     py     pz     px    dxy    dyz    dz2    dxz    dx2    tot
  1  0.032  0.165  0.188  0.004  0.199  0.035  0.024  0.192  0.000  0.839
 
band   7 # energy   13.41468694 # occ.  0.00000000
 
ion      s     py     pz     px    dxy    dyz    dz2    dxz    dx2    tot
  1  0.359  0.050  0.015  0.029  0.004  0.335  0.013  0.003  0.065  0.873
 
band   8 # energy   20.60321739 # occ.  0.00000000
 
ion      s     py     pz     px    dxy    dyz    dz2    dxz    dx2    tot
  1  0.075  0.079  0.103  0.153  0.100  0.003  0.002  0.147  0.028  0.689
 
band   9 # energy   23.45743595 # occ.  0.00000000
 
ion      s     py     pz     px    dxy    dyz    dz2    dxz    dx2    tot
  1  0.102  0.066  0.040  0.366  0.062  0.027  0.009  0.021  0.011  0.705
 
band  10 # energy   31.78854799 # occ.  0.00000000
 
ion      s     py     pz     px    dxy    dyz    dz2    dxz    dx2    tot
  1  0.014  0.001  0.004  0.009  0.302  0.000  0.012  0.328  0.069  0.739
 
band  11 # energy   36.65369258 # occ.  0.00000000
 
ion      s     py     pz     px    dxy    dyz    dz2    dxz    dx2    tot
  1  0.084  0.020  0.001  0.125  0.066  0.001  0.128  0.024  0.466  0.915
 
band  12 # energy   39.03287239 # occ.  0.00000000
 
ion      s     py     pz     px    dxy    dyz    dz2    dxz    dx2    tot
  1  0.012  0.045  0.009  0.005  0.020  0.033  0.167  0.002  0.020  0.313
 

 k-point   12 :   -0.12500000 0.12500000 0.04166667     weight = 0.01388889

band   1 # energy   -1.98497700 # occ.  1.00000000
 
ion      s     py     pz     px    dxy    dyz    dz2    dxz    dx2    tot
  1  0.667  0.009  0.000  0.038  0.002  0.000  0.001  0.000  0.001  0.718
 
band   2 # energy    3.21388577 # occ.  1.00000000
 
ion      s     py     pz     px    dxy    dyz    dz2    dxz    dx2    tot
  1  0.000  0.000  0.001  0.000  0.000  0.369  0.000  0.601  0.000  0.970
 
band   3 # energy    3.32521571 # occ.  1.00000000
 
ion      s     py     pz     px    dxy    dyz    dz2    dxz    dx2    tot
  1  0.001  0.005  0.000  0.002  0.939  0.000  0.022  0.000  0.001  0.968
 
band   4 # energy    3.66325783 # occ.  1.00000000
 
ion      s     py     pz     px    dxy    dyz    dz2    dxz    dx2    tot
  1  0.000  0.000  0.003  0.000  0.000  0.604  0.000  0.367  0.000  0.974
 
band   5 # energy    4.35541996 # occ.  1.00000000
 
ion      s     py     pz     px    dxy    dyz    dz2    dxz    dx2    tot
  1  0.000  0.000  0.000  0.000  0.022  0.000  0.768  0.000  0.172  0.962
 
band   6 # energy    4.63525957 # occ.  1.00000000
 
ion      s     py     pz     px    dxy    dyz    dz2    dxz    dx2    tot
  1  0.001  0.000  0.000  0.000  0.002  0.000  0.172  0.000  0.798  0.973
 
band   7 # energy   27.00355470 # occ.  0.00000000
 
ion      s     py     pz     px    dxy    dyz    dz2    dxz    dx2    tot
  1  0.006  0.060  0.000  0.024  0.196  0.000  0.215  0.000  0.018  0.518
 
band   8 # energy   29.22871731 # occ.  0.00000000
 
ion      s     py     pz     px    dxy    dyz    dz2    dxz    dx2    tot
  1  0.007  0.001  0.000  0.081  0.089  0.000  0.007  0.000  0.136  0.321
 
band   9 # energy   29.74050911 # occ.  0.00000000
 
ion      s     py     pz     px    dxy    dyz    dz2    dxz    dx2    tot
  1  0.000  0.000  0.055  0.000  0.000  0.041  0.000  0.389  0.000  0.484
 
band  10 # energy   33.31079238 # occ.  0.00000000
 
ion      s     py     pz     px    dxy    dyz    dz2    dxz    dx2    tot
  1  0.010  0.101  0.000  0.193  0.117  0.000  0.046  0.000  0.067  0.534
 
band  11 # energy   33.69505439 # occ.  0.00000000
 
ion      s     py     pz     px    dxy    dyz    dz2    dxz    dx2    tot