<?xml version="1.0" encoding="ISO-8859-1"?>
<modeling>
 <generator>
  <i name="program" type="string">vasp </i>
  <i name="version" type="string">5.4.1  </i>
  <i name="subversion" type="string">24Jun15 (build Jul 19 2016 16:50:41) complex                          parallel </i>
  <i name="platform" type="string">IFC91_ompi </i>
  <i name="date" type="string">2019 10 17 </i>
  <i name="time" type="string">11:06:00 </i>
 </generator>
 <incar>
  <i type="string" name="SYSTEM"> Fe BCC</i>
  <i type="string" name="PREC">accurate</i>
  <i type="int" name="ISPIN">     2</i>
  <i name="EDIFF">      0.00000100</i>
  <i name="ENCUT">    300.00000000</i>
  <v name="MAGMOM">      4.00000000</v>
  <i type="int" name="ISMEAR">    -5</i>
  <i type="logical" name="LORBIT"> F  </i>
  <v type="int" name="KPOINT_BSE">    -1     0     0     0</v>
 </incar>
 <kpoints>
  <generation param="Monkhorst-Pack">
   <v type="int" name="divisions">      12       12       12 </v>
   <v name="usershift">      0.00000000       0.00000000       0.00000000 </v>
   <v name="genvec1">      0.08333333       0.00000000       0.00000000 </v>
   <v name="genvec2">      0.00000000       0.08333333       0.00000000 </v>
   <v name="genvec3">      0.00000000       0.00000000       0.08333333 </v>
   <v name="shift">      0.50000000       0.50000000       0.50000000 </v>
  </generation>
  <varray name="kpointlist" >
   <v>       0.04166667       0.04166667       0.04166667 </v>
   <v>       0.12500000       0.04166667       0.04166667 </v>
   <v>       0.20833333       0.04166667       0.04166667 </v>
   <v>       0.29166667       0.04166667       0.04166667 </v>
   <v>       0.37500000       0.04166667       0.04166667 </v>
   <v>       0.45833333       0.04166667       0.04166667 </v>
   <v>      -0.04166667       0.04166667       0.04166667 </v>
   <v>       0.12500000       0.12500000       0.04166667 </v>
   <v>       0.20833333       0.12500000       0.04166667 </v>
   <v>       0.29166667       0.12500000       0.04166667 </v>
   <v>       0.37500000       0.12500000       0.04166667 </v>
   <v>      -0.12500000       0.12500000       0.04166667 </v>
   <v>       0.20833333       0.20833333       0.04166667 </v>
   <v>       0.29166667       0.20833333       0.04166667 </v>
   <v>       0.37500000       0.20833333       0.04166667 </v>
   <v>      -0.20833333       0.20833333       0.04166667 </v>
   <v>      -0.12500000       0.20833333       0.04166667 </v>
   <v>       0.29166667       0.29166667       0.04166667 </v>
   <v>      -0.29166667       0.29166667       0.04166667 </v>
   <v>      -0.20833333       0.29166667       0.04166667 </v>
   <v>      -0.37500000       0.37500000       0.04166667 </v>
   <v>      -0.29166667       0.37500000       0.04166667 </v>
   <v>      -0.20833333       0.37500000       0.04166667 </v>
   <v>      -0.45833333       0.45833333       0.04166667 </v>
   <v>      -0.37500000       0.45833333       0.04166667 </v>
   <v>      -0.29166667       0.45833333       0.04166667 </v>
   <v>      -0.45833333      -0.45833333       0.04166667 </v>
   <v>      -0.37500000      -0.45833333       0.04166667 </v>
   <v>      -0.29166667      -0.45833333       0.04166667 </v>
   <v>      -0.37500000      -0.37500000       0.04166667 </v>
   <v>       0.12500000       0.12500000       0.12500000 </v>
   <v>       0.20833333       0.12500000       0.12500000 </v>
   <v>       0.29166667       0.12500000       0.12500000 </v>
   <v>       0.37500000       0.12500000       0.12500000 </v>
   <v>      -0.12500000       0.12500000       0.12500000 </v>
   <v>       0.20833333       0.20833333       0.12500000 </v>
   <v>       0.29166667       0.20833333       0.12500000 </v>
   <v>      -0.20833333       0.20833333       0.12500000 </v>
   <v>       0.29166667       0.29166667       0.12500000 </v>
   <v>      -0.29166667       0.29166667       0.12500000 </v>
   <v>      -0.20833333       0.29166667       0.12500000 </v>
   <v>      -0.37500000       0.37500000       0.12500000 </v>
   <v>      -0.29166667       0.37500000       0.12500000 </v>
   <v>      -0.45833333       0.45833333       0.12500000 </v>
   <v>      -0.37500000       0.45833333       0.12500000 </v>
   <v>      -0.29166667       0.45833333       0.12500000 </v>
   <v>      -0.45833333      -0.45833333       0.12500000 </v>
   <v>      -0.37500000      -0.45833333       0.12500000 </v>
   <v>      -0.37500000      -0.37500000       0.12500000 </v>
   <v>       0.20833333       0.20833333       0.20833333 </v>
   <v>       0.29166667       0.20833333       0.20833333 </v>
   <v>      -0.20833333       0.20833333       0.20833333 </v>
   <v>      -0.29166667       0.29166667       0.20833333 </v>
   <v>      -0.37500000       0.37500000       0.20833333 </v>
   <v>      -0.29166667       0.37500000       0.20833333 </v>
   <v>      -0.45833333       0.45833333       0.20833333 </v>
   <v>      -0.37500000       0.45833333       0.20833333 </v>
   <v>      -0.45833333      -0.45833333       0.20833333 </v>
   <v>      -0.37500000      -0.45833333       0.20833333 </v>
   <v>      -0.29166667       0.29166667       0.29166667 </v>
   <v>      -0.37500000       0.37500000       0.29166667 </v>
   <v>      -0.45833333       0.45833333       0.29166667 </v>
   <v>      -0.37500000       0.45833333       0.29166667 </v>
   <v>      -0.45833333      -0.45833333       0.29166667 </v>
   <v>      -0.37500000       0.37500000       0.37500000 </v>
   <v>      -0.45833333       0.45833333       0.37500000 </v>
   <v>      -0.45833333      -0.45833333       0.37500000 </v>
   <v>      -0.45833333       0.45833333       0.45833333 </v>
  </varray>
  <varray name="weights" >
   <v>       0.00462963 </v>
   <v>       0.01388889 </v>
   <v>       0.01388889 </v>
   <v>       0.01388889 </v>
   <v>       0.01388889 </v>
   <v>       0.00694444 </v>
   <v>       0.00347222 </v>
   <v>       0.01388889 </v>
   <v>       0.02777778 </v>
   <v>       0.02777778 </v>
   <v>       0.02777778 </v>
   <v>       0.01388889 </v>
   <v>       0.01388889 </v>
   <v>       0.02777778 </v>
   <v>       0.01388889 </v>
   <v>       0.01388889 </v>
   <v>       0.01388889 </v>
   <v>       0.01388889 </v>
   <v>       0.01388889 </v>
   <v>       0.02777778 </v>
   <v>       0.01388889 </v>
   <v>       0.02777778 </v>
   <v>       0.01388889 </v>
   <v>       0.01388889 </v>
   <v>       0.02777778 </v>
   <v>       0.02777778 </v>
   <v>       0.01388889 </v>
   <v>       0.02777778 </v>
   <v>       0.01388889 </v>
   <v>       0.01388889 </v>
   <v>       0.00462963 </v>
   <v>       0.01388889 </v>
   <v>       0.01388889 </v>
   <v>       0.00694444 </v>
   <v>       0.00347222 </v>
   <v>       0.01388889 </v>
   <v>       0.02777778 </v>
   <v>       0.01388889 </v>
   <v>       0.00462963 </v>
   <v>       0.01388889 </v>
   <v>       0.01388889 </v>
   <v>       0.01388889 </v>
   <v>       0.02777778 </v>
   <v>       0.01388889 </v>
   <v>       0.02777778 </v>
   <v>       0.01388889 </v>
   <v>       0.01388889 </v>
   <v>       0.02777778 </v>
   <v>       0.00462963 </v>
   <v>       0.00462963 </v>
   <v>       0.00694444 </v>
   <v>       0.00347222 </v>
   <v>       0.01388889 </v>
   <v>       0.01388889 </v>
   <v>       0.01388889 </v>
   <v>       0.01388889 </v>
   <v>       0.02777778 </v>
   <v>       0.01388889 </v>
   <v>       0.01388889 </v>
   <v>       0.00347222 </v>
   <v>       0.01388889 </v>
   <v>       0.01388889 </v>
   <v>       0.01388889 </v>
   <v>       0.01388889 </v>
   <v>       0.00347222 </v>
   <v>       0.01388889 </v>
   <v>       0.00462963 </v>
   <v>       0.00347222 </v>
  </varray>
  <varray name="tetrahedronlist"  type="int" >
   <v type="int" >        4        1        2        2        8 </v>
   <v type="int" >        8        2        2        8        8 </v>
   <v type="int" >        4        2        8        8       31 </v>
   <v type="int" >        4        2        3        8        9 </v>
   <v type="int" >        4        2        8        8        9 </v>
   <v type="int" >       12        8        8        9       31 </v>
   <v type="int" >        8        3        8        9        9 </v>
   <v type="int" >        8        8        9        9       32 </v>
   <v type="int" >        8        8        9       31       32 </v>
   <v type="int" >        4        3        4        9       10 </v>
   <v type="int" >        4        3        9        9       10 </v>
   <v type="int" >       12        9        9       10       32 </v>
   <v type="int" >        8        4        9       10       10 </v>
   <v type="int" >        4        9       10       10       33 </v>
   <v type="int" >        4        9       10       32       33 </v>
   <v type="int" >        4        4        5       10       11 </v>
   <v type="int" >        4        4       10       10       11 </v>
   <v type="int" >        8       10       10       11       33 </v>
   <v type="int" >        8        5       10       11       11 </v>
   <v type="int" >        4       10       11       11       34 </v>
   <v type="int" >        4       10       11       33       34 </v>
   <v type="int" >        4        5        6       11       11 </v>
   <v type="int" >        4        5       11       11       11 </v>
   <v type="int" >        8       11       11       11       34 </v>
   <v type="int" >        8        6       11       11       11 </v>
   <v type="int" >        4       11       11       11       33 </v>
   <v type="int" >        4       11       11       33       34 </v>
   <v type="int" >        4        5        6       10       11 </v>
   <v type="int" >        4        6       10       11       11 </v>
   <v type="int" >        8       10       11       11       33 </v>
   <v type="int" >        8        5       10       10       11 </v>
   <v type="int" >        4       10       10       11       32 </v>
   <v type="int" >        4       10       11       32       33 </v>
   <v type="int" >        4        4        5        9       10 </v>
   <v type="int" >        4        5        9       10       10 </v>
   <v type="int" >        8        9       10       10       32 </v>
   <v type="int" >        8        4        9        9       10 </v>
   <v type="int" >        4        9        9       10       31 </v>
   <v type="int" >        4        9       10       31       32 </v>
   <v type="int" >        4        3        4        8        9 </v>
   <v type="int" >        4        4        8        9        9 </v>
   <v type="int" >       16        8        9        9       31 </v>
   <v type="int" >        8        3        8        8        9 </v>
   <v type="int" >        4        8        8        8        9 </v>
   <v type="int" >        4        2        2        3        8 </v>
   <v type="int" >        8        2        3        8        8 </v>
   <v type="int" >        4        2        8        8        8 </v>
   <v type="int" >        4        2        2        2        8 </v>
   <v type="int" >        8        2        2        8       17 </v>
   <v type="int" >        4        2        8        8       17 </v>
   <v type="int" >       16        1        2        2       12 </v>
   <v type="int" >        4        2        2        2       12 </v>
   <v type="int" >       12        2        2       12       17 </v>
   <v type="int" >       16        1        2       12       12 </v>
   <v type="int" >        4        2       12       12       35 </v>
   <v type="int" >        4        2       12       17       35 </v>
   <v type="int" >       20        1        7       12       12 </v>
   <v type="int" >        4        1       12       12       12 </v>
   <v type="int" >        4       12       12       12       35 </v>
   <v type="int" >        8        7       12       12       12 </v>
   <v type="int" >        4       12       12       12       17 </v>
   <v type="int" >        4       12       12       17       35 </v>
   <v type="int" >        8        1        2        7       12 </v>
   <v type="int" >        8        2        7       12       12 </v>
   <v type="int" >        8        2       12       12       17 </v>
   <v type="int" >        4        2        2        8       12 </v>
   <v type="int" >        4        2        8       12       17 </v>
   <v type="int" >        4        8        9       13       31 </v>
   <v type="int" >       12        9       13       31       32 </v>
   <v type="int" >        4       13       31       32       36 </v>
   <v type="int" >        4        9       10       14       32 </v>
   <v type="int" >        4        9       13       14       32 </v>
   <v type="int" >        8       13       14       32       36 </v>
   <v type="int" >       12       10       14       32       33 </v>
   <v type="int" >        4       14       32       33       37 </v>
   <v type="int" >        4       14       32       36       37 </v>
   <v type="int" >        4       10       11       15       33 </v>
   <v type="int" >        4       10       14       15       33 </v>
   <v type="int" >        8       14       15       33       37 </v>
   <v type="int" >       16       11       15       33       34 </v>
   <v type="int" >       16       15       33       34       37 </v>
   <v type="int" >        8       15       33       37       37 </v>
   <v type="int" >        8       11       11       14       34 </v>
   <v type="int" >       12       11       14       15       34 </v>
   <v type="int" >       12       14       15       34       37 </v>
   <v type="int" >       12       11       14       33       34 </v>
   <v type="int" >        4       14       33       34       36 </v>
   <v type="int" >        4       14       34       36       37 </v>
   <v type="int" >        4       10       11       13       33 </v>
   <v type="int" >        4       11       13       14       33 </v>
   <v type="int" >       12       13       14       33       36 </v>
   <v type="int" >       12       10       13       32       33 </v>
   <v type="int" >        4       13       32       32       33 </v>
   <v type="int" >       16       13       32       33       36 </v>
   <v type="int" >       16        9       10       13       32 </v>
   <v type="int" >        8        9       13       32       32 </v>
   <v type="int" >       16        9        9       31       32 </v>
   <v type="int" >        4        9        9       32       32 </v>
   <v type="int" >       12        3        8        9       31 </v>
   <v type="int" >        8        3        9        9       31 </v>
   <v type="int" >        8        3        8        8       31 </v>
   <v type="int" >        4        3        8       20       31 </v>
   <v type="int" >        4        3        9       20       31 </v>
   <v type="int" >        4        2        8        8       16 </v>
   <v type="int" >        4        3        8        8       16 </v>
   <v type="int" >        8        3        8       16       20 </v>
   <v type="int" >       12        2        8       16       17 </v>
   <v type="int" >        4        8       16       17       38 </v>
   <v type="int" >        4        8       16       20       38 </v>
   <v type="int" >        4        2       12       17       17 </v>
   <v type="int" >        4        2       16       17       17 </v>
   <v type="int" >        4       16       17       17       38 </v>
   <v type="int" >        8       12       17       17       35 </v>
   <v type="int" >        8       17       17       35       38 </v>
   <v type="int" >        4       17       17       38       38 </v>
   <v type="int" >        4       12       12       16       35 </v>
   <v type="int" >       12       12       16       17       35 </v>
   <v type="int" >       12       16       17       35       38 </v>
   <v type="int" >        4       16       17       20       35 </v>
   <v type="int" >        4       16       20       35       38 </v>
   <v type="int" >        4        2        3       12       17 </v>
   <v type="int" >        4        3       12       16       17 </v>
   <v type="int" >        8        3       16       17       20 </v>
   <v type="int" >       16        2        3        8       17 </v>
   <v type="int" >        4        3        8        9       17 </v>
   <v type="int" >        4        3        9       17       20 </v>
   <v type="int" >        4       13       14       18       36 </v>
   <v type="int" >        8       14       18       36       37 </v>
   <v type="int" >        4       18       36       37       39 </v>
   <v type="int" >       16       14       15       18       37 </v>
   <v type="int" >        4       14       18       18       37 </v>
   <v type="int" >       12       18       18       37       39 </v>
   <v type="int" >        8       15       18       37       37 </v>
   <v type="int" >        4       18       37       37       37 </v>
   <v type="int" >       16       18       37       37       39 </v>
   <v type="int" >        4       14       14       15       37 </v>
   <v type="int" >       12       14       18       37       37 </v>
   <v type="int" >        8       14       14       36       37 </v>
   <v type="int" >       16       14       33       36       37 </v>
   <v type="int" >        4       14       33       37       37 </v>
   <v type="int" >       12       10       13       14       36 </v>
   <v type="int" >        4       10       14       14       36 </v>
   <v type="int" >        8       10       14       33       36 </v>
   <v type="int" >       12       10       13       32       36 </v>
   <v type="int" >        4       10       10       32       36 </v>
   <v type="int" >        4       10       10       33       36 </v>
   <v type="int" >        4        4        9       13       32 </v>
   <v type="int" >        4        4       10       13       32 </v>
   <v type="int" >        4        4       10       10       32 </v>
   <v type="int" >        4        4        9        9       32 </v>
   <v type="int" >        4        4        9       22       32 </v>
   <v type="int" >        4        4       10       22       32 </v>
   <v type="int" >        4        3        9        9       19 </v>
   <v type="int" >        4        4        9        9       19 </v>
   <v type="int" >        8        4        9       19       22 </v>
   <v type="int" >        8        3        9       19       20 </v>
   <v type="int" >        4        9       19       20       40 </v>
   <v type="int" >        4        9       19       22       40 </v>
   <v type="int" >        4        3       16       20       20 </v>
   <v type="int" >        4        3       19       20       20 </v>
   <v type="int" >        4       19       20       20       40 </v>
   <v type="int" >        8       16       20       20       38 </v>
   <v type="int" >       12       20       20       38       41 </v>
   <v type="int" >        4       20       20       40       41 </v>
   <v type="int" >        8       16       17       20       38 </v>
   <v type="int" >        8       17       20       38       38 </v>
   <v type="int" >        4       20       38       38       40 </v>
   <v type="int" >        8       20       38       40       41 </v>
   <v type="int" >        4       16       17       19       38 </v>
   <v type="int" >        4       17       19       20       38 </v>
   <v type="int" >        8       19       20       38       40 </v>
   <v type="int" >        8       16       19       20       38 </v>
   <v type="int" >        4       19       20       22       38 </v>
   <v type="int" >        4       19       22       38       40 </v>
   <v type="int" >        4        3        4       16       20 </v>
   <v type="int" >        4        4       16       19       20 </v>
   <v type="int" >        8        4       19       20       22 </v>
   <v type="int" >       12        3        4        9       20 </v>
   <v type="int" >        4        4        9       10       20 </v>
   <v type="int" >        4        4       10       20       22 </v>
   <v type="int" >        8       15       18       18       39 </v>
   <v type="int" >       12       15       18       37       39 </v>
   <v type="int" >        4       15       34       37       39 </v>
   <v type="int" >        4       11       14       18       37 </v>
   <v type="int" >        4       11       15       18       37 </v>
   <v type="int" >        8       11       15       34       37 </v>
   <v type="int" >        8       11       14       33       37 </v>
   <v type="int" >        4       11       11       33       37 </v>
   <v type="int" >        8       11       11       34       37 </v>
   <v type="int" >        4        5       10       14       33 </v>
   <v type="int" >        4        5       11       14       33 </v>
   <v type="int" >        4        5       11       11       33 </v>
   <v type="int" >        4        5       10       10       33 </v>
   <v type="int" >        4        5       10       25       33 </v>
   <v type="int" >        4        5       11       25       33 </v>
   <v type="int" >        4        4       10       10       21 </v>
   <v type="int" >        4        5       10       10       21 </v>
   <v type="int" >        8        5       10       21       25 </v>
   <v type="int" >        8        4       10       21       22 </v>
   <v type="int" >        4       10       21       22       42 </v>
   <v type="int" >        4       10       21       25       42 </v>
   <v type="int" >        4        4       19       22       22 </v>
   <v type="int" >        4        4       21       22       22 </v>
   <v type="int" >        4       21       22       22       42 </v>
   <v type="int" >        4       19       22       22       40 </v>
   <v type="int" >        4       22       22       40       43 </v>
   <v type="int" >        4       22       22       42       43 </v>
   <v type="int" >        4       19       20       23       40 </v>
   <v type="int" >        4       19       22       23       40 </v>
   <v type="int" >        8       22       23       40       43 </v>
   <v type="int" >       12       20       23       40       41 </v>
   <v type="int" >       12       23       40       41       43 </v>
   <v type="int" >        4       23       40       43       43 </v>
   <v type="int" >        4       20       20       22       41 </v>
   <v type="int" >       12       20       22       23       41 </v>
   <v type="int" >       12       22       23       41       43 </v>
   <v type="int" >        8       20       22       40       41 </v>
   <v type="int" >        4       22       40       41       42 </v>
   <v type="int" >        4       22       41       42       43 </v>
   <v type="int" >        4       19       20       21       40 </v>
   <v type="int" >        4       20       21       22       40 </v>
   <v type="int" >        8       21       22       40       42 </v>
   <v type="int" >        8       19       21       22       40 </v>
   <v type="int" >        4       21       22       25       40 </v>
   <v type="int" >        4       21       25       40       42 </v>
   <v type="int" >        4        4        5       19       22 </v>
   <v type="int" >        4        5       19       21       22 </v>
   <v type="int" >        8        5       21       22       25 </v>
   <v type="int" >       12        4        5       10       22 </v>
   <v type="int" >        4        5       10       11       22 </v>
   <v type="int" >        4        5       11       22       25 </v>
   <v type="int" >        4        6       11       15       34 </v>
   <v type="int" >        8        6       11       11       34 </v>
   <v type="int" >        4        6       11       27       34 </v>
   <v type="int" >        4        5       11       11       24 </v>
   <v type="int" >        8        6       11       11       24 </v>
   <v type="int" >        8        6       11       24       27 </v>
   <v type="int" >        8        5       11       24       25 </v>
   <v type="int" >        4       11       24       25       44 </v>
   <v type="int" >        4       11       24       27       44 </v>
   <v type="int" >        4        5       21       25       25 </v>
   <v type="int" >        4        5       24       25       25 </v>
   <v type="int" >        4       24       25       25       44 </v>
   <v type="int" >        4       21       25       25       42 </v>
   <v type="int" >        4       25       25       42       45 </v>
   <v type="int" >        4       25       25       44       45 </v>
   <v type="int" >        4       21       22       26       42 </v>
   <v type="int" >        4       21       25       26       42 </v>
   <v type="int" >        8       25       26       42       45 </v>
   <v type="int" >        8       22       26       42       43 </v>
   <v type="int" >        4       26       42       43       46 </v>
   <v type="int" >        4       26       42       45       46 </v>
   <v type="int" >        8       22       23       26       43 </v>
   <v type="int" >        4       22       26       26       43 </v>
   <v type="int" >        8       26       26       43       46 </v>
   <v type="int" >        8       23       26       43       43 </v>
   <v type="int" >        4       26       43       43       45 </v>
   <v type="int" >        8       26       43       45       46 </v>
   <v type="int" >        4       22       23       25       43 </v>
   <v type="int" >        4       23       25       26       43 </v>
   <v type="int" >        8       25       26       43       45 </v>
   <v type="int" >        8       22       25       42       43 </v>
   <v type="int" >        4       25       42       43       44 </v>
   <v type="int" >        4       25       43       44       45 </v>
   <v type="int" >        4       21       22       24       42 </v>
   <v type="int" >        4       22       24       25       42 </v>
   <v type="int" >        8       24       25       42       44 </v>
   <v type="int" >        8       21       24       25       42 </v>
   <v type="int" >        4       24       25       27       42 </v>
   <v type="int" >        4       24       27       42       44 </v>
   <v type="int" >        4        5        6       21       25 </v>
   <v type="int" >        4        6       21       24       25 </v>
   <v type="int" >       12        6       24       25       27 </v>
   <v type="int" >       12        5        6       11       25 </v>
   <v type="int" >        8        6       11       11       25 </v>
   <v type="int" >       12        6       11       25       27 </v>
   <v type="int" >        4        6       24       27       27 </v>
   <v type="int" >        4       24       27       27       44 </v>
   <v type="int" >        4       27       27       44       47 </v>
   <v type="int" >        4       24       25       28       44 </v>
   <v type="int" >        4       24       27       28       44 </v>
   <v type="int" >        8       27       28       44       47 </v>
   <v type="int" >        8       25       28       44       45 </v>
   <v type="int" >        4       28       44       45       48 </v>
   <v type="int" >        4       28       44       47       48 </v>
   <v type="int" >        4       25       26       29       45 </v>
   <v type="int" >        4       25       28       29       45 </v>
   <v type="int" >        8       28       29       45       48 </v>
   <v type="int" >       12       26       29       45       46 </v>
   <v type="int" >       12       29       45       46       48 </v>
   <v type="int" >        4       29       45       48       48 </v>
   <v type="int" >        4       26       26       28       46 </v>
   <v type="int" >       12       26       28       29       46 </v>
   <v type="int" >       12       28       29       46       48 </v>
   <v type="int" >        8       26       28       45       46 </v>
   <v type="int" >        4       28       45       46       47 </v>
   <v type="int" >        4       28       46       47       48 </v>
   <v type="int" >        4       25       26       27       45 </v>
   <v type="int" >        4       26       27       28       45 </v>
   <v type="int" >       12       27       28       45       47 </v>
   <v type="int" >        8       25       27       44       45 </v>
   <v type="int" >        4       27       44       44       45 </v>
   <v type="int" >       12       27       44       45       47 </v>
   <v type="int" >        4       24       24       25       44 </v>
   <v type="int" >        8       24       25       27       44 </v>
   <v type="int" >        8       24       27       44       44 </v>
   <v type="int" >        8       24       24       27       44 </v>
   <v type="int" >        4       24       25       44       44 </v>
   <v type="int" >       16        5        6       24       27 </v>
   <v type="int" >        8        5       24       24       27 </v>
   <v type="int" >        8        5       24       25       27 </v>
   <v type="int" >       16        5        6       11       27 </v>
   <v type="int" >        4        5       10       11       27 </v>
   <v type="int" >        4        5       10       25       27 </v>
   <v type="int" >        4       27       28       30       47 </v>
   <v type="int" >        8       28       30       47       48 </v>
   <v type="int" >        4       30       47       48       49 </v>
   <v type="int" >       16       28       29       30       48 </v>
   <v type="int" >        4       28       30       30       48 </v>
   <v type="int" >       12       30       30       48       49 </v>
   <v type="int" >        8       29       30       48       48 </v>
   <v type="int" >        4       30       48       48       48 </v>
   <v type="int" >       16       30       48       48       49 </v>
   <v type="int" >        4       28       28       29       48 </v>
   <v type="int" >       12       28       30       48       48 </v>
   <v type="int" >        8       28       28       47       48 </v>
   <v type="int" >        8       28       45       47       48 </v>
   <v type="int" >        4       28       45       48       48 </v>
   <v type="int" >       12       25       27       28       47 </v>
   <v type="int" >        4       25       28       28       47 </v>
   <v type="int" >        8       25       28       45       47 </v>
   <v type="int" >       12       25       27       44       47 </v>
   <v type="int" >        4       25       42       44       47 </v>
   <v type="int" >        4       25       42       45       47 </v>
   <v type="int" >        4       21       24       27       44 </v>
   <v type="int" >        4       21       25       27       44 </v>
   <v type="int" >        8       21       25       42       44 </v>
   <v type="int" >        8       21       24       25       44 </v>
   <v type="int" >        4       21       22       25       44 </v>
   <v type="int" >        4       21       22       42       44 </v>
   <v type="int" >        4        4        5       24       25 </v>
   <v type="int" >        4        4       21       24       25 </v>
   <v type="int" >        8        4       21       22       25 </v>
   <v type="int" >       12        4        5       10       25 </v>
   <v type="int" >        4        4        9       10       25 </v>
   <v type="int" >        4        4        9       22       25 </v>
   <v type="int" >        8       29       30       30       49 </v>
   <v type="int" >       12       29       30       48       49 </v>
   <v type="int" >        4       29       46       48       49 </v>
   <v type="int" >        4       26       28       30       48 </v>
   <v type="int" >        4       26       29       30       48 </v>
   <v type="int" >        8       26       29       46       48 </v>
   <v type="int" >        8       26       28       45       48 </v>
   <v type="int" >        4       26       43       45       48 </v>
   <v type="int" >        4       26       43       46       48 </v>
   <v type="int" >        4       22       25       28       45 </v>
   <v type="int" >        4       22       26       28       45 </v>
   <v type="int" >        8       22       26       43       45 </v>
   <v type="int" >        8       22       25       42       45 </v>
   <v type="int" >        4       22       40       42       45 </v>
   <v type="int" >        4       22       40       43       45 </v>
   <v type="int" >        4       19       21       25       42 </v>
   <v type="int" >        4       19       22       25       42 </v>
   <v type="int" >        8       19       22       40       42 </v>
   <v type="int" >        8       19       21       22       42 </v>
   <v type="int" >        4       19       20       22       42 </v>
   <v type="int" >        4       19       20       40       42 </v>
   <v type="int" >        4        3        4       21       22 </v>
   <v type="int" >        4        3       19       21       22 </v>
   <v type="int" >        8        3       19       20       22 </v>
   <v type="int" >       12        3        4        9       22 </v>
   <v type="int" >        4        3        8        9       22 </v>
   <v type="int" >        4        3        8       20       22 </v>
   <v type="int" >        4       23       26       29       46 </v>
   <v type="int" >        8       23       26       43       46 </v>
   <v type="int" >        4       23       41       43       46 </v>
   <v type="int" >        4       20       22       26       43 </v>
   <v type="int" >        4       20       23       26       43 </v>
   <v type="int" >        8       20       23       41       43 </v>
   <v type="int" >        8       20       22       40       43 </v>
   <v type="int" >        4       20       38       40       43 </v>
   <v type="int" >        4       20       38       41       43 </v>
   <v type="int" >        4       16       19       22       40 </v>
   <v type="int" >        4       16       20       22       40 </v>
   <v type="int" >        8       16       20       38       40 </v>
   <v type="int" >        8       16       19       20       40 </v>
   <v type="int" >        4       16       17       20       40 </v>
   <v type="int" >        4       16       17       38       40 </v>
   <v type="int" >        4        2        3       19       20 </v>
   <v type="int" >        4        2       16       19       20 </v>
   <v type="int" >        8        2       16       17       20 </v>
   <v type="int" >       12        2        3        8       20 </v>
   <v type="int" >        4        2        2        8       20 </v>
   <v type="int" >        4        2        2       17       20 </v>
   <v type="int" >        4       17       20       23       41 </v>
   <v type="int" >        8       17       20       38       41 </v>
   <v type="int" >        4       17       35       38       41 </v>
   <v type="int" >        4       12       16       20       38 </v>
   <v type="int" >        4       12       17       20       38 </v>
   <v type="int" >        8       12       17       35       38 </v>
   <v type="int" >        8       12       16       17       38 </v>
   <v type="int" >        4       12       12       17       38 </v>
   <v type="int" >        4       12       12       35       38 </v>
   <v type="int" >        4        1        2       16       17 </v>
   <v type="int" >        4        1       12       16       17 </v>
   <v type="int" >        8        1       12       12       17 </v>
   <v type="int" >        8        1        2        2       17 </v>
   <v type="int" >       12        1        2       12       17 </v>
   <v type="int" >        4        7       12       17       35 </v>
   <v type="int" >        4        7       12       12       35 </v>
   <v type="int" >        4        1        7       12       35 </v>
   <v type="int" >        4        7        7       12       12 </v>
   <v type="int" >       12        1        7        7       12 </v>
   <v type="int" >        6        1        1        7        7 </v>
   <v type="int" >        8        1        1        7       12 </v>
   <v type="int" >        4        1        1        2       12 </v>
   <v type="int" >        4        2        3        8       31 </v>
   <v type="int" >        4        3        9       31       32 </v>
   <v type="int" >       12        9       31       32       32 </v>
   <v type="int" >        8        9        9       13       32 </v>
   <v type="int" >        4        9       13       32       36 </v>
   <v type="int" >        4        9       32       32       36 </v>
   <v type="int" >        4        9       10       13       33 </v>
   <v type="int" >        4        9       13       32       33 </v>
   <v type="int" >        8       10       13       14       33 </v>
   <v type="int" >        4       13       14       33       37 </v>
   <v type="int" >        4       13       33       36       37 </v>
   <v type="int" >        4       10       11       14       34 </v>
   <v type="int" >        4       10       14       33       34 </v>
   <v type="int" >       12       14       33       34       37 </v>
   <v type="int" >        8       14       34       37       37 </v>
   <v type="int" >        8       11       11       15       33 </v>
   <v type="int" >        8       11       14       15       33 </v>
   <v type="int" >        4       14       15       33       36 </v>
   <v type="int" >        4       15       33       36       37 </v>
   <v type="int" >        4       10       11       14       32 </v>
   <v type="int" >        4       11       14       32       33 </v>
   <v type="int" >       12       14       32       33       36 </v>
   <v type="int" >        8       10       13       14       32 </v>
   <v type="int" >        4       13       14       32       32 </v>
   <v type="int" >        4       14       32       32       36 </v>
   <v type="int" >        4        9       10       13       31 </v>
   <v type="int" >        4       10       13       31       32 </v>
   <v type="int" >        8       13       31       32       32 </v>
   <v type="int" >        8        9        9       13       31 </v>
   <v type="int" >        4        8        8        9        9 </v>
   <v type="int" >       16        3        8        9       20 </v>
   <v type="int" >       12        8        9        9       20 </v>
   <v type="int" >        4        3        8        8       17 </v>
   <v type="int" >       12        3        8       17       20 </v>
   <v type="int" >       12        2        3       16       17 </v>
   <v type="int" >        4        3       16       17       38 </v>
   <v type="int" >        4        3       17       20       38 </v>
   <v type="int" >        4        2       12       16       35 </v>
   <v type="int" >        4        2       16       17       35 </v>
   <v type="int" >        4       16       35       38       38 </v>
   <v type="int" >        4       12       12       17       17 </v>
   <v type="int" >        4       12       16       17       17 </v>
   <v type="int" >        4       16       17       17       20 </v>
   <v type="int" >        4       17       17       20       38 </v>
   <v type="int" >        4        2        8       12       16 </v>
   <v type="int" >        4        8       12       16       17 </v>
   <v type="int" >       12        8       16       17       20 </v>
   <v type="int" >        8        2        3        8       16 </v>
   <v type="int" >        4        3        8        9       16 </v>
   <v type="int" >        4        8        9       16       20 </v>
   <v type="int" >        4       31       32       32       36 </v>
   <v type="int" >        8       32       32       36       36 </v>
   <v type="int" >        4       32       36       36       50 </v>
   <v type="int" >        4       32       33       36       37 </v>
   <v type="int" >        4       32       36       36       37 </v>
   <v type="int" >       12       36       36       37       50 </v>
   <v type="int" >        8       33       36       37       37 </v>
   <v type="int" >        8       36       37       37       51 </v>
   <v type="int" >        8       36       37       50       51 </v>
   <v type="int" >        4       33       34       37       37 </v>
   <v type="int" >        4       33       37       37       37 </v>
   <v type="int" >       16       37       37       37       51 </v>
   <v type="int" >        8       34       37       37       37 </v>
   <v type="int" >        4       37       37       37       50 </v>
   <v type="int" >       20       37       37       50       51 </v>
   <v type="int" >        4       33       34       36       37 </v>
   <v type="int" >        4       34       36       37       37 </v>
   <v type="int" >       16       36       37       37       50 </v>
   <v type="int" >        8       33       36       36       37 </v>
   <v type="int" >        4       36       36       36       37 </v>
   <v type="int" >        4       32       32       33       36 </v>
   <v type="int" >        8       32       33       36       36 </v>
   <v type="int" >        4       32       36       36       36 </v>
   <v type="int" >        4       32       32       32       36 </v>
   <v type="int" >        8       13       32       32       36 </v>
   <v type="int" >        4       13       32       36       36 </v>
   <v type="int" >        4        9       32       32       32 </v>
   <v type="int" >        4        9        9       23       32 </v>
   <v type="int" >        4        9       13       23       32 </v>
   <v type="int" >        4        8        9       20       31 </v>
   <v type="int" >        4        9        9       20       31 </v>
   <v type="int" >        8        9        9       20       23 </v>
   <v type="int" >        8        8        9       20       20 </v>
   <v type="int" >        4        9       20       20       41 </v>
   <v type="int" >        4        9       20       23       41 </v>
   <v type="int" >        4        8       17       20       38 </v>
   <v type="int" >        4        8       20       20       38 </v>
   <v type="int" >        4       20       38       38       52 </v>
   <v type="int" >        4       20       38       41       52 </v>
   <v type="int" >        4       17       35       38       38 </v>
   <v type="int" >        4       17       38       38       38 </v>
   <v type="int" >        4       38       38       38       52 </v>
   <v type="int" >        4       35       38       38       38 </v>
   <v type="int" >        4       38       38       38       41 </v>
   <v type="int" >        4       38       38       41       52 </v>
   <v type="int" >        4       17       20       35       38 </v>
   <v type="int" >        4       20       35       38       38 </v>
   <v type="int" >        8       20       38       38       41 </v>
   <v type="int" >       12       17       20       20       38 </v>
   <v type="int" >        4       20       20       23       38 </v>
   <v type="int" >        4       20       23       38       41 </v>
   <v type="int" >        4        8        9       17       20 </v>
   <v type="int" >        4        9       17       20       20 </v>
   <v type="int" >        8        9       20       20       23 </v>
   <v type="int" >        4        9        9       13       20 </v>
   <v type="int" >        4        9       13       20       23 </v>
   <v type="int" >        4       36       37       39       50 </v>
   <v type="int" >       16       37       39       50       51 </v>
   <v type="int" >       12       39       50       51       51 </v>
   <v type="int" >       20       37       37       39       51 </v>
   <v type="int" >       12       37       39       51       51 </v>
   <v type="int" >        8       37       37       51       51 </v>
   <v type="int" >       12       33       36       37       50 </v>
   <v type="int" >        8       33       37       37       50 </v>
   <v type="int" >        8       33       36       36       50 </v>
   <v type="int" >        4       14       33       36       50 </v>
   <v type="int" >        4       14       33       37       50 </v>
   <v type="int" >        4       10       32       36       36 </v>
   <v type="int" >        4       10       33       36       36 </v>
   <v type="int" >        4       10       13       26       36 </v>
   <v type="int" >        4       10       14       26       36 </v>
   <v type="int" >        4        9       13       22       32 </v>
   <v type="int" >        4       10       13       22       32 </v>
   <v type="int" >        8       10       13       22       26 </v>
   <v type="int" >       12        9       13       22       23 </v>
   <v type="int" >        4       13       22       23       43 </v>
   <v type="int" >        4       13       22       26       43 </v>
   <v type="int" >        4        9       20       23       40 </v>
   <v type="int" >        4        9       22       23       40 </v>
   <v type="int" >        4       23       40       41       53 </v>
   <v type="int" >        4       23       40       43       53 </v>
   <v type="int" >        4       20       38       41       41 </v>
   <v type="int" >        4       20       40       41       41 </v>
   <v type="int" >        4       40       41       41       53 </v>
   <v type="int" >        8       38       41       41       52 </v>
   <v type="int" >        8       41       41       52       53 </v>
   <v type="int" >        4       41       41       53       53 </v>
   <v type="int" >        4       38       38       40       52 </v>
   <v type="int" >       12       38       40       41       52 </v>
   <v type="int" >       12       40       41       52       53 </v>
   <v type="int" >        4       40       41       43       52 </v>
   <v type="int" >        4       40       43       52       53 </v>
   <v type="int" >        4       20       22       38       41 </v>
   <v type="int" >        4       22       38       40       41 </v>
   <v type="int" >        8       22       40       41       43 </v>
   <v type="int" >        4       22       23       26       41 </v>
   <v type="int" >        4       22       26       41       43 </v>
   <v type="int" >        4        9       10       20       23 </v>
   <v type="int" >        4       10       20       22       23 </v>
   <v type="int" >        8       10       22       23       26 </v>
   <v type="int" >       12        9       10       13       23 </v>
   <v type="int" >        4       10       13       14       23 </v>
   <v type="int" >        4       10       14       23       26 </v>
   <v type="int" >        4       34       37       39       51 </v>
   <v type="int" >        8       34       37       37       51 </v>
   <v type="int" >        4       15       34       37       51 </v>
   <v type="int" >        4       11       33       37       37 </v>
   <v type="int" >        8       11       34       37       37 </v>
   <v type="int" >        4       11       14       28       37 </v>
   <v type="int" >        4       11       15       28       37 </v>
   <v type="int" >        4       10       14       25       33 </v>
   <v type="int" >        4       11       14       25       33 </v>
   <v type="int" >        8       11       14       25       28 </v>
   <v type="int" >        8       10       14       25       26 </v>
   <v type="int" >        4       14       25       26       45 </v>
   <v type="int" >        4       14       25       28       45 </v>
   <v type="int" >        4       10       22       26       42 </v>
   <v type="int" >        4       10       25       26       42 </v>
   <v type="int" >        4       26       42       43       54 </v>
   <v type="int" >        4       26       42       45       54 </v>
   <v type="int" >        4       22       40       43       43 </v>
   <v type="int" >        4       22       42       43       43 </v>
   <v type="int" >        4       42       43       43       54 </v>
   <v type="int" >        8       40       43       43       53 </v>
   <v type="int" >       12       43       43       53       55 </v>
   <v type="int" >        4       43       43       54       55 </v>
   <v type="int" >        8       40       41       43       53 </v>
   <v type="int" >        8       41       43       53       53 </v>
   <v type="int" >        4       43       53       53       54 </v>
   <v type="int" >        8       43       53       54       55 </v>
   <v type="int" >        4       40       41       42       53 </v>
   <v type="int" >        4       41       42       43       53 </v>
   <v type="int" >        8       42       43       53       54 </v>
   <v type="int" >        8       40       42       43       53 </v>
   <v type="int" >        4       42       43       45       53 </v>
   <v type="int" >        4       42       45       53       54 </v>
   <v type="int" >        4       22       25       40       43 </v>
   <v type="int" >        4       25       40       42       43 </v>
   <v type="int" >        8       25       42       43       45 </v>
   <v type="int" >        8       22       25       26       43 </v>
   <v type="int" >        4       25       26       28       43 </v>
   <v type="int" >        4       25       28       43       45 </v>
   <v type="int" >        4       10       11       22       26 </v>
   <v type="int" >        4       11       22       25       26 </v>
   <v type="int" >        8       11       25       26       28 </v>
   <v type="int" >        8       10       11       14       26 </v>
   <v type="int" >        4       11       14       15       26 </v>
   <v type="int" >        4       11       15       26       28 </v>
   <v type="int" >        4       11       15       27       34 </v>
   <v type="int" >        8       11       15       27       28 </v>
   <v type="int" >        4       15       27       28       47 </v>
   <v type="int" >        4       11       25       28       44 </v>
   <v type="int" >        4       11       27       28       44 </v>
   <v type="int" >        4       28       44       45       56 </v>
   <v type="int" >        4       28       44       47       56 </v>
   <v type="int" >        4       25       42       45       45 </v>
   <v type="int" >        4       25       44       45       45 </v>
   <v type="int" >        4       44       45       45       56 </v>
   <v type="int" >        4       42       45       45       54 </v>
   <v type="int" >        4       45       45       54       57 </v>
   <v type="int" >        4       45       45       56       57 </v>
   <v type="int" >        4       42       43       46       54 </v>
   <v type="int" >        4       42       45       46       54 </v>
   <v type="int" >        8       45       46       54       57 </v>
   <v type="int" >       12       43       46       54       55 </v>
   <v type="int" >       12       46       54       55       57 </v>
   <v type="int" >        4       46       54       57       57 </v>
   <v type="int" >        4       43       43       45       55 </v>
   <v type="int" >       12       43       45       46       55 </v>
   <v type="int" >       12       45       46       55       57 </v>
   <v type="int" >        8       43       45       54       55 </v>
   <v type="int" >        4       45       54       55       56 </v>
   <v type="int" >        4       45       55       56       57 </v>
   <v type="int" >        4       42       43       44       54 </v>
   <v type="int" >        4       43       44       45       54 </v>
   <v type="int" >        8       44       45       54       56 </v>
   <v type="int" >        8       42       44       45       54 </v>
   <v type="int" >        4       44       45       47       54 </v>
   <v type="int" >        4       44       47       54       56 </v>
   <v type="int" >        4       25       27       42       45 </v>
   <v type="int" >        4       27       42       44       45 </v>
   <v type="int" >        8       25       27       28       45 </v>
   <v type="int" >        4       27       28       28       45 </v>
   <v type="int" >        4       11       11       25       28 </v>
   <v type="int" >        8       11       25       27       28 </v>
   <v type="int" >        8       11       27       28       28 </v>
   <v type="int" >        8       11       11       15       28 </v>
   <v type="int" >        8       11       14       15       28 </v>
   <v type="int" >        4       11       14       28       28 </v>
   <v type="int" >        4       27       44       47       47 </v>
   <v type="int" >        4       44       47       47       56 </v>
   <v type="int" >        4       47       47       56       58 </v>
   <v type="int" >        4       44       45       48       56 </v>
   <v type="int" >        4       44       47       48       56 </v>
   <v type="int" >        8       47       48       56       58 </v>
   <v type="int" >        8       45       48       56       57 </v>
   <v type="int" >        4       48       56       57       59 </v>
   <v type="int" >        4       48       56       58       59 </v>
   <v type="int" >        8       45       46       48       57 </v>
   <v type="int" >        4       45       48       48       57 </v>
   <v type="int" >       12       48       48       57       59 </v>
   <v type="int" >        8       46       48       57       57 </v>
   <v type="int" >        4       48       57       57       58 </v>
   <v type="int" >       16       48       57       58       59 </v>
   <v type="int" >        4       45       46       47       57 </v>
   <v type="int" >        4       46       47       48       57 </v>
   <v type="int" >       12       47       48       57       58 </v>
   <v type="int" >        8       45       47       56       57 </v>
   <v type="int" >        4       47       56       56       57 </v>
   <v type="int" >       12       47       56       57       58 </v>
   <v type="int" >        4       44       44       45       56 </v>
   <v type="int" >        8       44       45       47       56 </v>
   <v type="int" >        8       44       47       56       56 </v>
   <v type="int" >        8       44       44       47       56 </v>
   <v type="int" >        4       44       45       56       56 </v>
   <v type="int" >        4       25       44       44       47 </v>
   <v type="int" >        8       25       44       45       47 </v>
   <v type="int" >        4       25       26       28       47 </v>
   <v type="int" >        4       25       26       45       47 </v>
   <v type="int" >        4       10       11       27       28 </v>
   <v type="int" >        4       10       25       27       28 </v>
   <v type="int" >        8       10       25       26       28 </v>
   <v type="int" >        8       10       11       14       28 </v>
   <v type="int" >        4       10       13       14       28 </v>
   <v type="int" >        4       10       13       26       28 </v>
   <v type="int" >        4       47       48       49       58 </v>
   <v type="int" >       12       48       49       58       59 </v>
   <v type="int" >        8       49       58       59       59 </v>
   <v type="int" >        4       48       48       48       59 </v>
   <v type="int" >       16       48       48       49       59 </v>
   <v type="int" >       12       48       49       59       59 </v>
   <v type="int" >        8       48       48       58       59 </v>
   <v type="int" >        4       48       57       59       59 </v>
   <v type="int" >       12       45       47       48       58 </v>
   <v type="int" >        4       45       48       48       58 </v>
   <v type="int" >        8       45       48       57       58 </v>
   <v type="int" >       12       45       47       56       58 </v>
   <v type="int" >        4       45       54       56       58 </v>
   <v type="int" >        4       45       54       57       58 </v>
   <v type="int" >        4       42       44       47       56 </v>
   <v type="int" >        4       42       45       47       56 </v>
   <v type="int" >        8       42       45       54       56 </v>
   <v type="int" >        8       42       44       45       56 </v>
   <v type="int" >        4       42       43       45       56 </v>
   <v type="int" >        4       42       43       54       56 </v>
   <v type="int" >        4       22       25       44       45 </v>
   <v type="int" >        4       22       42       44       45 </v>
   <v type="int" >        8       22       42       43       45 </v>
   <v type="int" >        8       22       25       26       45 </v>
   <v type="int" >        4       22       23       26       45 </v>
   <v type="int" >        4       22       23       43       45 </v>
   <v type="int" >        4        9       10       25       26 </v>
   <v type="int" >        4        9       22       25       26 </v>
   <v type="int" >        8        9       22       23       26 </v>
   <v type="int" >        8        9       10       13       26 </v>
   <v type="int" >        4        9        9       13       26 </v>
   <v type="int" >        4        9        9       23       26 </v>
   <v type="int" >        4       46       48       49       59 </v>
   <v type="int" >        8       46       48       57       59 </v>
   <v type="int" >        4       46       55       57       59 </v>
   <v type="int" >        4       43       45       48       57 </v>
   <v type="int" >        4       43       46       48       57 </v>
   <v type="int" >        8       43       46       55       57 </v>
   <v type="int" >        8       43       45       54       57 </v>
   <v type="int" >        4       43       53       54       57 </v>
   <v type="int" >        4       43       53       55       57 </v>
   <v type="int" >        4       40       42       45       54 </v>
   <v type="int" >        4       40       43       45       54 </v>
   <v type="int" >        8       40       43       53       54 </v>
   <v type="int" >        8       40       42       43       54 </v>
   <v type="int" >        4       40       41       43       54 </v>
   <v type="int" >        4       40       41       53       54 </v>
   <v type="int" >        4       20       22       42       43 </v>
   <v type="int" >        4       20       40       42       43 </v>
   <v type="int" >        8       20       40       41       43 </v>
   <v type="int" >        8       20       22       23       43 </v>
   <v type="int" >        4       20       20       23       43 </v>
   <v type="int" >        4       20       20       41       43 </v>
   <v type="int" >        4        8        9       22       23 </v>
   <v type="int" >        4        8       20       22       23 </v>
   <v type="int" >        4        8       20       20       23 </v>
   <v type="int" >        4        8        9        9       23 </v>
   <v type="int" >        4        3        8        9       23 </v>
   <v type="int" >        4        3        8       20       23 </v>
   <v type="int" >        4       41       43       46       55 </v>
   <v type="int" >        8       41       43       53       55 </v>
   <v type="int" >        4       41       52       53       55 </v>
   <v type="int" >        4       38       40       43       53 </v>
   <v type="int" >        4       38       41       43       53 </v>
   <v type="int" >        8       38       41       52       53 </v>
   <v type="int" >        8       38       40       41       53 </v>
   <v type="int" >        4       38       38       41       53 </v>
   <v type="int" >        4       38       38       52       53 </v>
   <v type="int" >        4       17       20       40       41 </v>
   <v type="int" >        4       17       38       40       41 </v>
   <v type="int" >        4       17       38       38       41 </v>
   <v type="int" >        4       17       20       20       41 </v>
   <v type="int" >        4       16       17       20       41 </v>
   <v type="int" >        4       16       17       38       41 </v>
   <v type="int" >        4        2        8       20       20 </v>
   <v type="int" >        4        2       17       20       20 </v>
   <v type="int" >       12        2        3       16       20 </v>
   <v type="int" >        4        2       16       16       20 </v>
   <v type="int" >        4       35       38       41       52 </v>
   <v type="int" >        4       35       38       38       52 </v>
   <v type="int" >        4       17       35       38       52 </v>
   <v type="int" >        4       12       17       38       38 </v>
   <v type="int" >        4       12       35       38       38 </v>
   <v type="int" >        4        2       12       16       38 </v>
   <v type="int" >        4        2       12       17       38 </v>
   <v type="int" >       16        2       12       16       17 </v>
   <v type="int" >        4       12       12       16       17 </v>
   <v type="int" >       12        2       12       12       16 </v>
   <v type="int" >        8        2       12       16       16 </v>
   <v type="int" >        4       12       16       16       17 </v>
   <v type="int" >        4        1       12       17       35 </v>
   <v type="int" >        4        2       12       12       12 </v>
   <v type="int" >        8        2        2       12       16 </v>
   <v type="int" >        4        2        2        3       16 </v>
   <v type="int" >        4        3        4        9       32 </v>
   <v type="int" >        8        4        9       10       32 </v>
   <v type="int" >        4        4       10       32       33 </v>
   <v type="int" >        4        9       10       13       36 </v>
   <v type="int" >        4        9       10       32       36 </v>
   <v type="int" >        8       10       32       33       36 </v>
   <v type="int" >        4       10       14       36       37 </v>
   <v type="int" >        4       10       33       36       37 </v>
   <v type="int" >        4       13       14       14       37 </v>
   <v type="int" >        4       13       14       36       37 </v>
   <v type="int" >       12       14       36       37       37 </v>
   <v type="int" >        8       14       14       18       37 </v>
   <v type="int" >        4       14       18       37       39 </v>
   <v type="int" >        4       14       37       37       39 </v>
   <v type="int" >        8       15       18       18       37 </v>
   <v type="int" >        4       18       18       37       37 </v>
   <v type="int" >        4       14       15       18       36 </v>
   <v type="int" >        4       15       18       36       37 </v>
   <v type="int" >        4       18       36       37       37 </v>
   <v type="int" >        4       14       14       18       36 </v>
   <v type="int" >        4       14       18       33       36 </v>
   <v type="int" >        4       18       33       36       37 </v>
   <v type="int" >        4       13       14       14       32 </v>
   <v type="int" >        4       14       14       32       36 </v>
   <v type="int" >        4       10       10       14       32 </v>
   <v type="int" >        4        9        9       10       13 </v>
   <v type="int" >        8        4        9       10       22 </v>
   <v type="int" >        4        9       10       10       22 </v>
   <v type="int" >        4        4        9        9       20 </v>
   <v type="int" >        8        4        9       20       22 </v>
   <v type="int" >       12        3        4       19       20 </v>
   <v type="int" >        4        4       19       20       40 </v>
   <v type="int" >        4        4       20       22       40 </v>
   <v type="int" >        4        3       16       19       38 </v>
   <v type="int" >        4        3       19       20       38 </v>
   <v type="int" >        4       19       20       38       41 </v>
   <v type="int" >        4       19       38       40       41 </v>
   <v type="int" >        4       16       20       38       38 </v>
   <v type="int" >        8       20       20       38       40 </v>
   <v type="int" >        4       16       17       20       20 </v>
   <v type="int" >        4       16       19       20       20 </v>
   <v type="int" >        4       19       20       20       22 </v>
   <v type="int" >        4       20       20       22       40 </v>
   <v type="int" >        4        3        9       16       19 </v>
   <v type="int" >        4        9       16       19       20 </v>
   <v type="int" >        8        9       19       20       22 </v>
   <v type="int" >        8        3        4        9       19 </v>
   <v type="int" >        4        4        9       10       19 </v>
   <v type="int" >        4        9       10       19       22 </v>
   <v type="int" >        4       32       33       36       50 </v>
   <v type="int" >        4       33       37       50       51 </v>
   <v type="int" >       12       37       50       51       51 </v>
   <v type="int" >        8       37       51       51       51 </v>
   <v type="int" >       12       37       37       39       50 </v>
   <v type="int" >        4       36       36       37       37 </v>
   <v type="int" >        4       13       33       36       36 </v>
   <v type="int" >        4       10       13       26       33 </v>
   <v type="int" >        4       13       14       26       33 </v>
   <v type="int" >        4        9       10       23       32 </v>
   <v type="int" >        4       10       13       23       32 </v>
   <v type="int" >       12       10       13       23       26 </v>
   <v type="int" >        8        9       10       22       23 </v>
   <v type="int" >        4       10       22       23       43 </v>
   <v type="int" >        4       10       23       26       43 </v>
   <v type="int" >        4        9       20       22       41 </v>
   <v type="int" >        4        9       22       23       41 </v>
   <v type="int" >        4       22       40       41       53 </v>
   <v type="int" >        4       22       41       43       53 </v>
   <v type="int" >        4       20       38       40       52 </v>
   <v type="int" >        4       20       40       41       52 </v>
   <v type="int" >        4       40       52       53       53 </v>
   <v type="int" >        4       38       38       41       41 </v>
   <v type="int" >        4       38       40       41       41 </v>
   <v type="int" >        4       40       41       41       43 </v>
   <v type="int" >        4       41       41       43       53 </v>
   <v type="int" >        4       20       23       38       40 </v>
   <v type="int" >        4       23       38       40       41 </v>
   <v type="int" >        8       20       22       23       40 </v>
   <v type="int" >        4       22       23       26       40 </v>
   <v type="int" >        4       23       26       40       43 </v>
   <v type="int" >        4        9       13       20       22 </v>
   <v type="int" >        4       13       20       22       23 </v>
   <v type="int" >       12       13       22       23       26 </v>
   <v type="int" >        8        9       10       13       22 </v>
   <v type="int" >        4       10       13       14       22 </v>
   <v type="int" >        4       13       14       22       26 </v>
   <v type="int" >        4       50       51       51       51 </v>
   <v type="int" >        4       51       51       51       51 </v>
   <v type="int" >        4       39       51       51       51 </v>
   <v type="int" >        8       18       37       37       51 </v>
   <v type="int" >        8       18       37       39       51 </v>
   <v type="int" >        4       14       36       37       50 </v>
   <v type="int" >        4       14       37       37       50 </v>
   <v type="int" >        4       14       14       29       37 </v>
   <v type="int" >        4       14       18       29       37 </v>
   <v type="int" >        4       13       14       26       36 </v>
   <v type="int" >        4       14       14       26       36 </v>
   <v type="int" >        8       14       14       26       29 </v>
   <v type="int" >        8       13       14       26       26 </v>
   <v type="int" >        4       14       26       26       46 </v>
   <v type="int" >        4       14       26       29       46 </v>
   <v type="int" >        4       13       23       26       43 </v>
   <v type="int" >        4       13       26       26       43 </v>
   <v type="int" >        4       26       43       43       55 </v>
   <v type="int" >        4       26       43       46       55 </v>
   <v type="int" >        4       23       41       43       53 </v>
   <v type="int" >        4       23       43       43       53 </v>
   <v type="int" >        4       43       53       53       60 </v>
   <v type="int" >        4       43       53       55       60 </v>
   <v type="int" >        4       41       52       53       53 </v>
   <v type="int" >        4       41       53       53       53 </v>
   <v type="int" >        4       53       53       53       60 </v>
   <v type="int" >        4       52       53       53       53 </v>
   <v type="int" >        4       53       53       53       55 </v>
   <v type="int" >        4       53       53       55       60 </v>
   <v type="int" >        4       41       43       52       53 </v>
   <v type="int" >        4       43       52       53       53 </v>
   <v type="int" >        8       43       53       53       55 </v>
   <v type="int" >       12       41       43       43       53 </v>
   <v type="int" >        4       43       43       46       53 </v>
   <v type="int" >        4       43       46       53       55 </v>
   <v type="int" >        4       23       26       41       43 </v>
   <v type="int" >        4       26       41       43       43 </v>
   <v type="int" >        8       26       43       43       46 </v>
   <v type="int" >        8       23       26       26       43 </v>
   <v type="int" >        4       26       26       29       43 </v>
   <v type="int" >        4       26       29       43       46 </v>
   <v type="int" >        4       13       14       23       26 </v>
   <v type="int" >        4       14       23       26       26 </v>
   <v type="int" >        8       14       26       26       29 </v>
   <v type="int" >        8       13       14       14       26 </v>
   <v type="int" >        4       14       14       18       26 </v>
   <v type="int" >        4       14       18       26       29 </v>
   <v type="int" >        4       15       37       39       51 </v>
   <v type="int" >        4       15       18       30       39 </v>
   <v type="int" >        4       14       18       28       37 </v>
   <v type="int" >        4       15       18       28       37 </v>
   <v type="int" >        8       15       18       28       30 </v>
   <v type="int" >       12       14       18       28       29 </v>
   <v type="int" >        4       18       28       29       48 </v>
   <v type="int" >        4       18       28       30       48 </v>
   <v type="int" >        4       14       26       29       45 </v>
   <v type="int" >        4       14       28       29       45 </v>
   <v type="int" >        4       29       45       46       57 </v>
   <v type="int" >        4       29       45       48       57 </v>
   <v type="int" >        4       26       43       46       54 </v>
   <v type="int" >        4       26       45       46       54 </v>
   <v type="int" >        4       46       54       55       61 </v>
   <v type="int" >        4       46       54       57       61 </v>
   <v type="int" >        4       43       53       55       55 </v>
   <v type="int" >        4       43       54       55       55 </v>
   <v type="int" >        4       54       55       55       61 </v>
   <v type="int" >        8       53       55       55       60 </v>
   <v type="int" >        8       55       55       60       61 </v>
   <v type="int" >        4       55       55       61       61 </v>
   <v type="int" >        4       53       53       54       60 </v>
   <v type="int" >       12       53       54       55       60 </v>
   <v type="int" >       12       54       55       60       61 </v>
   <v type="int" >        4       54       55       57       60 </v>
   <v type="int" >        4       54       57       60       61 </v>
   <v type="int" >        4       43       45       53       55 </v>
   <v type="int" >        4       45       53       54       55 </v>
   <v type="int" >        8       45       54       55       57 </v>
   <v type="int" >        4       45       46       48       55 </v>
   <v type="int" >        4       45       48       55       57 </v>
   <v type="int" >        4       26       28       43       46 </v>
   <v type="int" >        4       28       43       45       46 </v>
   <v type="int" >        8       28       45       46       48 </v>
   <v type="int" >        4       28       29       30       46 </v>
   <v type="int" >        4       28       30       46       48 </v>
   <v type="int" >        4       14       15       26       29 </v>
   <v type="int" >        4       15       26       28       29 </v>
   <v type="int" >       12       15       28       29       30 </v>
   <v type="int" >       12       14       15       18       29 </v>
   <v type="int" >        4       15       18       18       29 </v>
   <v type="int" >       16       15       18       29       30 </v>
   <v type="int" >        4       15       28       30       47 </v>
   <v type="int" >        4       30       47       48       58 </v>
   <v type="int" >        4       28       45       48       56 </v>
   <v type="int" >        4       28       47       48       56 </v>
   <v type="int" >        4       48       56       57       62 </v>
   <v type="int" >        4       48       56       58       62 </v>
   <v type="int" >        4       45       54       57       57 </v>
   <v type="int" >        4       45       56       57       57 </v>
   <v type="int" >        4       56       57       57       62 </v>
   <v type="int" >        8       54       57       57       61 </v>
   <v type="int" >       12       57       57       61       63 </v>
   <v type="int" >        4       57       57       62       63 </v>
   <v type="int" >        8       54       55       57       61 </v>
   <v type="int" >        8       55       57       61       61 </v>
   <v type="int" >        4       57       61       61       62 </v>
   <v type="int" >        8       57       61       62       63 </v>
   <v type="int" >        4       54       55       56       61 </v>
   <v type="int" >        4       55       56       57       61 </v>
   <v type="int" >        8       56       57       61       62 </v>
   <v type="int" >        8       54       56       57       61 </v>
   <v type="int" >        4       56       57       58       61 </v>
   <v type="int" >        4       56       58       61       62 </v>
   <v type="int" >        4       45       47       54       57 </v>
   <v type="int" >        4       47       54       56       57 </v>
   <v type="int" >        8       45       47       48       57 </v>
   <v type="int" >        4       47       48       48       57 </v>
   <v type="int" >        4       28       28       45       48 </v>
   <v type="int" >        8       28       47       48       48 </v>
   <v type="int" >        8       28       28       30       48 </v>
   <v type="int" >        4       28       29       48       48 </v>
   <v type="int" >       12       14       15       28       30 </v>
   <v type="int" >        4       14       28       28       30 </v>
   <v type="int" >        8       14       28       29       30 </v>
   <v type="int" >       12       14       15       18       30 </v>
   <v type="int" >        4       14       14       18       30 </v>
   <v type="int" >        4       14       14       29       30 </v>
   <v type="int" >        4       47       56       58       58 </v>
   <v type="int" >        4       56       58       58       62 </v>
   <v type="int" >        4       58       58       62       64 </v>
   <v type="int" >        4       56       57       59       62 </v>
   <v type="int" >        4       56       58       59       62 </v>
   <v type="int" >        8       58       59       62       64 </v>
   <v type="int" >       12       57       59       62       63 </v>
   <v type="int" >       12       59       62       63       64 </v>
   <v type="int" >        4       59       62       64       64 </v>
   <v type="int" >        4       57       57       58       63 </v>
   <v type="int" >       12       57       58       59       63 </v>
   <v type="int" >       16       58       59       63       64 </v>
   <v type="int" >        8       57       58       62       63 </v>
   <v type="int" >        4       58       62       62       63 </v>
   <v type="int" >       12       58       62       63       64 </v>
   <v type="int" >        4       56       56       57       62 </v>
   <v type="int" >        8       56       57       58       62 </v>
   <v type="int" >        8       56       58       62       62 </v>
   <v type="int" >        8       56       56       58       62 </v>
   <v type="int" >        4       56       57       62       62 </v>
   <v type="int" >        4       45       56       56       58 </v>
   <v type="int" >        8       45       56       57       58 </v>
   <v type="int" >        4       45       46       48       58 </v>
   <v type="int" >        4       45       46       57       58 </v>
   <v type="int" >        4       26       28       47       48 </v>
   <v type="int" >        4       26       45       47       48 </v>
   <v type="int" >        8       26       45       46       48 </v>
   <v type="int" >        8       26       28       29       48 </v>
   <v type="int" >        4       26       26       29       48 </v>
   <v type="int" >        4       26       26       46       48 </v>
   <v type="int" >        4       13       14       28       29 </v>
   <v type="int" >        4       13       26       28       29 </v>
   <v type="int" >        4       13       26       26       29 </v>
   <v type="int" >        4       13       14       14       29 </v>
   <v type="int" >        4       10       13       14       29 </v>
   <v type="int" >        4       10       13       26       29 </v>
   <v type="int" >        8       58       59       59       64 </v>
   <v type="int" >        8       59       59       64       64 </v>
   <v type="int" >        8       59       63       64       64 </v>
   <v type="int" >       12       57       58       59       64 </v>
   <v type="int" >        4       57       59       59       64 </v>
   <v type="int" >        8       57       59       63       64 </v>
   <v type="int" >       12       57       58       62       64 </v>
   <v type="int" >        4       57       61       62       64 </v>
   <v type="int" >        4       57       61       63       64 </v>
   <v type="int" >        4       54       56       58       62 </v>
   <v type="int" >        4       54       57       58       62 </v>
   <v type="int" >        8       54       57       61       62 </v>
   <v type="int" >        8       54       56       57       62 </v>
   <v type="int" >        4       54       55       57       62 </v>
[...]
       </set>
       <set comment="band 5">
        <r>  0.0061  0.0007  0.0017  0.0059  0.0179  0.6029  0.0071  0.2854  0.0536 </r>
       </set>
       <set comment="band 6">
        <r>  0.1190  0.0446  0.0065  0.2393  0.0483  0.0232  0.0641  0.0274  0.3084 </r>
       </set>
       <set comment="band 7">
        <r>  0.1491  0.3210  0.0103  0.0040  0.2154  0.0046  0.0836  0.0019  0.0551 </r>
       </set>
       <set comment="band 8">
        <r>  0.0956  0.0001  0.4246  0.0101  0.0016  0.0321  0.0751  0.1733  0.0010 </r>
       </set>
       <set comment="band 9">
        <r>  0.0442  0.0004  0.1188  0.0117  0.0138  0.0029  0.4502  0.0336  0.0166 </r>
       </set>
       <set comment="band 10">
        <r>  0.0561  0.1627  0.0151  0.0062  0.0233  0.0014  0.0050  0.0002  0.3567 </r>
       </set>
       <set comment="band 11">
        <r>  0.0358  0.0904  0.0492  0.2581  0.0005  0.0665  0.1127  0.0184  0.1511 </r>
       </set>
       <set comment="band 12">
        <r>  0.1429  0.0001  0.0317  0.0507  0.1146  0.3461  0.0096  0.2024  0.0159 </r>
       </set>
      </set>
      <set comment="kpoint 58">
       <set comment="band 1">
        <r>  0.0345  0.0236  0.0093  0.0236  0.1553  0.0000  0.5990  0.0000  0.0000 </r>
       </set>
       <set comment="band 2">
        <r>  0.0000  0.0731  0.0000  0.0731  0.0000  0.0078  0.0000  0.0078  0.6642 </r>
       </set>
       <set comment="band 3">
        <r>  0.0202  0.0010  0.0250  0.0010  0.1182  0.3677  0.0377  0.3677  0.0000 </r>
       </set>
       <set comment="band 4">
        <r>  0.0178  0.0073  0.0086  0.0073  0.5398  0.0865  0.1995  0.0865  0.0000 </r>
       </set>
       <set comment="band 5">
        <r>  0.0000  0.0055  0.0000  0.0055  0.0000  0.4655  0.0000  0.4655  0.0436 </r>
       </set>
       <set comment="band 6">
        <r>  0.0000  0.2395  0.0000  0.2395  0.0000  0.0252  0.0000  0.0252  0.3168 </r>
       </set>
       <set comment="band 7">
        <r>  0.2953  0.0855  0.0143  0.0855  0.2662  0.0004  0.1203  0.0004  0.0000 </r>
       </set>
       <set comment="band 8">
        <r>  0.0924  0.0033  0.4510  0.0033  0.0007  0.0911  0.0734  0.0911  0.0000 </r>
       </set>
       <set comment="band 9">
        <r>  0.0577  0.0055  0.1207  0.0055  0.0098  0.0126  0.4559  0.0126  0.0000 </r>
       </set>
       <set comment="band 10">
        <r>  0.0000  0.0476  0.0000  0.0476  0.0000  0.0023  0.0000  0.0023  0.5361 </r>
       </set>
       <set comment="band 11">
        <r>  0.0890  0.2294  0.0484  0.2294  0.0073  0.0177  0.1352  0.0177  0.0000 </r>
       </set>
       <set comment="band 12">
        <r>  0.1383  0.0071  0.0417  0.0071  0.1253  0.3042  0.0027  0.3042  0.0000 </r>
       </set>
      </set>
      <set comment="kpoint 59">
       <set comment="band 1">
        <r>  0.0131  0.0095  0.0095  0.0987  0.0238  0.0070  0.1612  0.0238  0.4835 </r>
       </set>
       <set comment="band 2">
        <r>  0.0000  0.0336  0.0336  0.0000  0.0348  0.0000  0.5315  0.0348  0.1772 </r>
       </set>
       <set comment="band 3">
        <r>  0.0389  0.0126  0.0127  0.0010  0.2667  0.3120  0.0053  0.2667  0.0158 </r>
       </set>
       <set comment="band 4">
        <r>  0.0000  0.0161  0.0161  0.0000  0.4093  0.0000  0.0860  0.4093  0.0287 </r>
       </set>
       <set comment="band 5">
        <r>  0.0034  0.0016  0.0016  0.0167  0.1335  0.5960  0.0226  0.1335  0.0678 </r>
       </set>
       <set comment="band 6">
        <r>  0.0634  0.0389  0.0389  0.3336  0.0425  0.0375  0.0643  0.0425  0.1928 </r>
       </set>
       <set comment="band 7">
        <r>  0.0000  0.2364  0.2364  0.0000  0.0784  0.0000  0.1636  0.0784  0.0545 </r>
       </set>
       <set comment="band 8">
        <r>  0.3465  0.1180  0.1180  0.0000  0.0691  0.0741  0.0037  0.0691  0.0111 </r>
       </set>
       <set comment="band 9">
        <r>  0.0000  0.0531  0.0531  0.0000  0.0191  0.0000  0.4219  0.0191  0.1406 </r>
       </set>
       <set comment="band 10">
        <r>  0.0271  0.0643  0.0643  0.0076  0.0000  0.0114  0.1201  0.0000  0.3604 </r>
       </set>
       <set comment="band 11">
        <r>  0.1174  0.1264  0.1264  0.2714  0.0001  0.0126  0.0194  0.0001  0.0583 </r>
       </set>
       <set comment="band 12">
        <r>  0.1876  0.0031  0.0031  0.0041  0.2198  0.2917  0.0002  0.2198  0.0007 </r>
       </set>
      </set>
      <set comment="kpoint 60">
       <set comment="band 1">
        <r>  0.1946  0.0000  0.0000  0.2312  0.0000  0.0000  0.0839  0.0000  0.2518 </r>
       </set>
       <set comment="band 2">
        <r>  0.0000  0.0000  0.0000  0.0000  0.0000  0.0000  0.6498  0.0000  0.2166 </r>
       </set>
       <set comment="band 3">
        <r>  0.0000  0.0228  0.0228  0.0000  0.4524  0.0000  0.0000  0.4524  0.0000 </r>
       </set>
       <set comment="band 4">
        <r>  0.0000  0.0228  0.0228  0.0000  0.4524  0.0000  0.0000  0.4524  0.0000 </r>
       </set>
       <set comment="band 5">
        <r>  0.0000  0.0000  0.0000  0.0000  0.0000  0.9751  0.0000  0.0000  0.0000 </r>
       </set>
       <set comment="band 6">
        <r>  0.1541  0.0000  0.0000  0.1127  0.0000  0.0000  0.1651  0.0000  0.4953 </r>
       </set>
       <set comment="band 7">
        <r>  0.0000  0.2672  0.2672  0.0000  0.1634  0.0000  0.0000  0.1634  0.0000 </r>
       </set>
       <set comment="band 8">
        <r>  0.0000  0.2672  0.2672  0.0000  0.1634  0.0000  0.0000  0.1634  0.0000 </r>
       </set>
       <set comment="band 9">
        <r>  0.0000  0.0000  0.0000  0.0000  0.0000  0.0000  0.5561  0.0000  0.1854 </r>
       </set>
       <set comment="band 10">
        <r>  0.2813  0.0000  0.0000  0.1089  0.0000  0.0000  0.0369  0.0000  0.1107 </r>
       </set>
       <set comment="band 11">
        <r>  0.0851  0.0000  0.0000  0.3036  0.0000  0.0000  0.1159  0.0000  0.3476 </r>
       </set>
       <set comment="band 12">
        <r>  0.0000  0.0000  0.0000  0.0000  0.0000  1.0453  0.0000  0.0000  0.0000 </r>
       </set>
      </set>
      <set comment="kpoint 61">
       <set comment="band 1">
        <r>  0.0814  0.0016  0.0000  0.1705  0.0157  0.0000  0.1774  0.0000  0.3511 </r>
       </set>
       <set comment="band 2">
        <r>  0.0000  0.0104  0.0000  0.0015  0.0201  0.0000  0.5579  0.0000  0.2660 </r>
       </set>
       <set comment="band 3">
        <r>  0.0000  0.0000  0.0413  0.0000  0.0000  0.2032  0.0000  0.7072  0.0000 </r>
       </set>
       <set comment="band 4">
        <r>  0.0075  0.0421  0.0000  0.0001  0.8414  0.0000  0.0554  0.0000  0.0031 </r>
       </set>
       <set comment="band 5">
        <r>  0.0000  0.0000  0.0047  0.0000  0.0000  0.7730  0.0000  0.2020  0.0000 </r>
       </set>
       <set comment="band 6">
        <r>  0.1755  0.0121  0.0000  0.2343  0.0195  0.0000  0.0975  0.0000  0.3400 </r>
       </set>
       <set comment="band 7">
        <r>  0.0677  0.4477  0.0000  0.0054  0.2137  0.0000  0.0484  0.0000  0.0479 </r>
       </set>
       <set comment="band 8">
        <r>  0.0000  0.0000  0.5861  0.0000  0.0000  0.0090  0.0000  0.2344  0.0000 </r>
       </set>
       <set comment="band 9">
        <r>  0.0527  0.0139  0.0000  0.0095  0.0142  0.0000  0.6018  0.0000  0.0590 </r>
       </set>
       <set comment="band 10">
        <r>  0.1798  0.0985  0.0000  0.0271  0.0205  0.0000  0.0007  0.0000  0.3094 </r>
       </set>
       <set comment="band 11">
        <r>  0.1576  0.0219  0.0000  0.3097  0.0034  0.0000  0.0989  0.0000  0.2311 </r>
       </set>
       <set comment="band 12">
        <r>  0.0000  0.0000  0.0786  0.0000  0.0000  0.5988  0.0000  0.1603  0.0000 </r>
       </set>
      </set>
      <set comment="kpoint 62">
       <set comment="band 1">
        <r>  0.0243  0.0000  0.0000  0.0756  0.0516  0.0000  0.5236  0.0000  0.1580 </r>
       </set>
       <set comment="band 2">
        <r>  0.0000  0.0453  0.0000  0.0250  0.0128  0.0000  0.2000  0.0000  0.5556 </r>
       </set>
       <set comment="band 3">
        <r>  0.0000  0.0000  0.0376  0.0000  0.0000  0.3871  0.0000  0.5273  0.0000 </r>
       </set>
       <set comment="band 4">
        <r>  0.0275  0.0252  0.0000  0.0077  0.7776  0.0000  0.1067  0.0000  0.0014 </r>
       </set>
       <set comment="band 5">
        <r>  0.0000  0.0000  0.0012  0.0000  0.0000  0.5786  0.0000  0.4088  0.0000 </r>
       </set>
       <set comment="band 6">
        <r>  0.0844  0.0838  0.0000  0.3475  0.0301  0.0000  0.0313  0.0000  0.2642 </r>
       </set>
       <set comment="band 7">
        <r>  0.1920  0.3330  0.0000  0.0026  0.1946  0.0000  0.0759  0.0000  0.0405 </r>
       </set>
       <set comment="band 8">
        <r>  0.0000  0.0000  0.6222  0.0000  0.0000  0.0497  0.0000  0.1326  0.0000 </r>
       </set>
       <set comment="band 9">
        <r>  0.1056  0.0001  0.0000  0.0067  0.0070  0.0000  0.6145  0.0000  0.0044 </r>
       </set>
       <set comment="band 10">
        <r>  0.0335  0.1068  0.0000  0.0050  0.0065  0.0000  0.0017  0.0000  0.5345 </r>
       </set>
       <set comment="band 11">
        <r>  0.2513  0.1116  0.0000  0.2726  0.0204  0.0000  0.1005  0.0000  0.0557 </r>
       </set>
       <set comment="band 12">
        <r>  0.0000  0.0000  0.0875  0.0000  0.0000  0.4332  0.0000  0.2915  0.0000 </r>
       </set>
      </set>
      <set comment="kpoint 63">
       <set comment="band 1">
        <r>  0.0217  0.0024  0.0024  0.1023  0.0055  0.0003  0.1708  0.0055  0.5125 </r>
       </set>
       <set comment="band 2">
        <r>  0.0000  0.0089  0.0089  0.0000  0.0091  0.0000  0.6097  0.0091  0.2032 </r>
       </set>
       <set comment="band 3">
        <r>  0.0140  0.0180  0.0180  0.0024  0.3183  0.2450  0.0032  0.3183  0.0097 </r>
       </set>
       <set comment="band 4">
        <r>  0.0000  0.0206  0.0206  0.0000  0.4449  0.0000  0.0219  0.4449  0.0073 </r>
       </set>
       <set comment="band 5">
        <r>  0.0035  0.0002  0.0002  0.0050  0.1177  0.7225  0.0038  0.1178  0.0115 </r>
       </set>
       <set comment="band 6">
        <r>  0.1396  0.0126  0.0126  0.3564  0.0188  0.0044  0.0696  0.0188  0.2087 </r>
       </set>
       <set comment="band 7">
        <r>  0.0000  0.2711  0.2711  0.0000  0.0747  0.0000  0.0998  0.0747  0.0333 </r>
       </set>
       <set comment="band 8">
        <r>  0.1365  0.2352  0.2352  0.0017  0.0748  0.0237  0.0040  0.0748  0.0120 </r>
       </set>
       <set comment="band 9">
        <r>  0.0000  0.0377  0.0377  0.0000  0.0116  0.0000  0.5167  0.0116  0.1722 </r>
       </set>
       <set comment="band 10">
        <r>  0.1410  0.0468  0.0468  0.0005  0.0020  0.0020  0.1114  0.0020  0.3342 </r>
       </set>
       <set comment="band 11">
        <r>  0.2790  0.0283  0.0283  0.2797  0.0038  0.0001  0.0453  0.0038  0.1360 </r>
       </set>
       <set comment="band 12">
        <r>  0.0338  0.0307  0.0307  0.0017  0.1280  0.4079  0.0003  0.1280  0.0008 </r>
       </set>
      </set>
      <set comment="kpoint 64">
       <set comment="band 1">
        <r>  0.0035  0.0120  0.0112  0.0120  0.0226  0.0006  0.7807  0.0006  0.0000 </r>
       </set>
       <set comment="band 2">
        <r>  0.0000  0.0338  0.0000  0.0338  0.0000  0.0032  0.0000  0.0032  0.7625 </r>
       </set>
       <set comment="band 3">
        <r>  0.0197  0.0090  0.0200  0.0090  0.2625  0.3097  0.0052  0.3097  0.0000 </r>
       </set>
       <set comment="band 4">
        <r>  0.0041  0.0089  0.0148  0.0089  0.5983  0.1453  0.0395  0.1453  0.0000 </r>
       </set>
       <set comment="band 5">
        <r>  0.0000  0.0051  0.0000  0.0051  0.0000  0.4791  0.0000  0.4791  0.0156 </r>
       </set>
       <set comment="band 6">
        <r>  0.0000  0.2777  0.0000  0.2777  0.0000  0.0159  0.0000  0.0159  0.2334 </r>
       </set>
       <set comment="band 7">
        <r>  0.1859  0.1685  0.0363  0.1685  0.1533  0.0006  0.1105  0.0006  0.0000 </r>
       </set>
       <set comment="band 8">
        <r>  0.1011  0.0010  0.5057  0.0010  0.0031  0.0681  0.0475  0.0681  0.0000 </r>
       </set>
       <set comment="band 9">
        <r>  0.0347  0.0014  0.0685  0.0014  0.0064  0.0039  0.6511  0.0039  0.0000 </r>
       </set>
       <set comment="band 10">
        <r>  0.0000  0.0474  0.0000  0.0474  0.0000  0.0019  0.0000  0.0019  0.6413 </r>
       </set>
       <set comment="band 11">
        <r>  0.3872  0.1583  0.0382  0.1583  0.0119  0.0009  0.0353  0.0009  0.0000 </r>
       </set>
       <set comment="band 12">
        <r>  0.0439  0.0102  0.0392  0.0102  0.1199  0.2619  0.0006  0.2619  0.0000 </r>
       </set>
      </set>
      <set comment="kpoint 65">
       <set comment="band 1">
        <r>  0.0246  0.0000  0.0000  0.1037  0.0000  0.0000  0.1733  0.0000  0.5198 </r>
       </set>
       <set comment="band 2">
        <r>  0.0000  0.0000  0.0000  0.0000  0.0000  0.0000  0.6375  0.0000  0.2125 </r>
       </set>
       <set comment="band 3">
        <r>  0.0000  0.0225  0.0225  0.0000  0.4566  0.0000  0.0000  0.4566  0.0000 </r>
       </set>
       <set comment="band 4">
        <r>  0.0000  0.0225  0.0225  0.0000  0.4566  0.0000  0.0000  0.4566  0.0000 </r>
       </set>
       <set comment="band 5">
        <r>  0.0000  0.0000  0.0000  0.0000  0.0000  0.9813  0.0000  0.0000  0.0000 </r>
       </set>
       <set comment="band 6">
        <r>  0.1769  0.0000  0.0000  0.3666  0.0000  0.0000  0.0723  0.0000  0.2168 </r>
       </set>
       <set comment="band 7">
        <r>  0.0000  0.3155  0.3155  0.0000  0.0831  0.0000  0.0000  0.0831  0.0000 </r>
       </set>
       <set comment="band 8">
        <r>  0.0000  0.3155  0.3155  0.0000  0.0831  0.0000  0.0000  0.0831  0.0000 </r>
       </set>
       <set comment="band 9">
        <r>  0.0000  0.0000  0.0000  0.0000  0.0000  0.0000  0.6263  0.0000  0.2088 </r>
       </set>
       <set comment="band 10">
        <r>  0.2484  0.0000  0.0000  0.0053  0.0000  0.0000  0.1101  0.0000  0.3304 </r>
       </set>
       <set comment="band 11">
        <r>  0.3087  0.0000  0.0000  0.2771  0.0000  0.0000  0.0562  0.0000  0.1685 </r>
       </set>
       <set comment="band 12">
        <r>  0.0000  0.0000  0.0000  0.0000  0.0000  0.6363  0.0000  0.0000  0.0000 </r>
       </set>
      </set>
      <set comment="kpoint 66">
       <set comment="band 1">
        <r>  0.0038  0.0020  0.0000  0.0462  0.0019  0.0000  0.2533  0.0000  0.5293 </r>
       </set>
       <set comment="band 2">
        <r>  0.0001  0.0096  0.0000  0.0003  0.0032  0.0000  0.5684  0.0000  0.2635 </r>
       </set>
       <set comment="band 3">
        <r>  0.0000  0.0000  0.0314  0.0000  0.0000  0.3190  0.0000  0.6143  0.0000 </r>
       </set>
       <set comment="band 4">
        <r>  0.0066  0.0275  0.0000  0.0072  0.9116  0.0000  0.0105  0.0000  0.0001 </r>
       </set>
       <set comment="band 5">
        <r>  0.0000  0.0000  0.0011  0.0000  0.0000  0.6568  0.0000  0.3294  0.0000 </r>
       </set>
       <set comment="band 6">
        <r>  0.0960  0.0236  0.0000  0.4850  0.0148  0.0000  0.0346  0.0000  0.1468 </r>
       </set>
       <set comment="band 7">
        <r>  0.0687  0.5560  0.0000  0.0023  0.0977  0.0000  0.0302  0.0000  0.0322 </r>
       </set>
       <set comment="band 8">
        <r>  0.0000  0.0000  0.6682  0.0000  0.0000  0.0187  0.0000  0.0836  0.0000 </r>
       </set>
       <set comment="band 9">
        <r>  0.0294  0.0102  0.0000  0.0000  0.0033  0.0000  0.7431  0.0000  0.0484 </r>
       </set>
       <set comment="band 10">
        <r>  0.0672  0.0421  0.0000  0.0130  0.0006  0.0000  0.0261  0.0000  0.6250 </r>
       </set>
       <set comment="band 11">
        <r>  0.4959  0.0401  0.0000  0.1837  0.0046  0.0000  0.0322  0.0000  0.0403 </r>
       </set>
       <set comment="band 12">
        <r>  0.0000  0.0000  0.0278  0.0000  0.0000  0.3506  0.0000  0.1448  0.0000 </r>
       </set>
      </set>
      <set comment="kpoint 67">
       <set comment="band 1">
        <r>  0.0000  0.0029  0.0116  0.0029  0.0010  0.0003  0.8234  0.0003  0.0000 </r>
       </set>
       <set comment="band 2">
        <r>  0.0000  0.0087  0.0000  0.0087  0.0000  0.0008  0.0000  0.0008  0.8234 </r>
       </set>
       <set comment="band 3">
        <r>  0.0050  0.0099  0.0099  0.0099  0.3099  0.3100  0.0000  0.3100  0.0000 </r>
       </set>
       <set comment="band 4">
        <r>  0.0000  0.0017  0.0070  0.0017  0.6458  0.1614  0.0036  0.1614  0.0000 </r>
       </set>
       <set comment="band 5">
        <r>  0.0000  0.0052  0.0000  0.0052  0.0000  0.4843  0.0000  0.4843  0.0036 </r>
       </set>
       <set comment="band 6">
        <r>  0.0000  0.3217  0.0000  0.3217  0.0000  0.0134  0.0000  0.0134  0.1063 </r>
       </set>
       <set comment="band 7">
        <r>  0.0000  0.1072  0.4289  0.1072  0.0179  0.0045  0.1063  0.0045  0.0000 </r>
       </set>
       <set comment="band 8">
        <r>  0.1395  0.1779  0.1779  0.1779  0.0299  0.0299  0.0000  0.0299  0.0000 </r>
       </set>
       <set comment="band 9">
        <r>  0.0000  0.0089  0.0357  0.0090  0.0013  0.0003  0.7751  0.0003  0.0000 </r>
       </set>
       <set comment="band 10">
        <r>  0.0000  0.0268  0.0000  0.0268  0.0000  0.0010  0.0000  0.0010  0.7751 </r>
       </set>
       <set comment="band 11">
        <r>  0.6299  0.0512  0.0512  0.0512  0.0012  0.0012  0.0000  0.0012  0.0000 </r>
       </set>
       <set comment="band 12">
        <r>  0.0060  0.0088  0.0088  0.0088  0.1311  0.1311  0.0000  0.1311  0.0000 </r>
       </set>
      </set>
      <set comment="kpoint 68">
       <set comment="band 1">
        <r>  0.0003  0.0000  0.0000  0.0117  0.0000  0.0000  0.2075  0.0000  0.6224 </r>
       </set>
       <set comment="band 2">
        <r>  0.0000  0.0000  0.0000  0.0000  0.0000  0.0000  0.6330  0.0000  0.2110 </r>
       </set>
       <set comment="band 3">
        <r>  0.0000  0.0053  0.0053  0.0000  0.4858  0.0000  0.0000  0.4858  0.0000 </r>
       </set>
       <set comment="band 4">
        <r>  0.0000  0.0053  0.0053  0.0000  0.4858  0.0000  0.0000  0.4858  0.0000 </r>
       </set>
       <set comment="band 5">
        <r>  0.0000  0.0000  0.0000  0.0000  0.0000  0.9875  0.0000  0.0000  0.0000 </r>
       </set>
       <set comment="band 6">
        <r>  0.0450  0.0000  0.0000  0.6393  0.0000  0.0000  0.0176  0.0000  0.0528 </r>
       </set>
       <set comment="band 7">
        <r>  0.0000  0.3565  0.3565  0.0000  0.0135  0.0000  0.0000  0.0135  0.0000 </r>
       </set>
       <set comment="band 8">
        <r>  0.0000  0.3565  0.3565  0.0000  0.0135  0.0000  0.0000  0.0135  0.0000 </r>
       </set>
       <set comment="band 9">
        <r>  0.0000  0.0000  0.0000  0.0000  0.0000  0.0000  0.6603  0.0000  0.2201 </r>
       </set>
       <set comment="band 10">
        <r>  0.0183  0.0000  0.0000  0.0236  0.0000  0.0000  0.2016  0.0000  0.6048 </r>
       </set>
       <set comment="band 11">
        <r>  0.7199  0.0000  0.0000  0.0585  0.0000  0.0000  0.0024  0.0000  0.0072 </r>
       </set>
       <set comment="band 12">
        <r>  0.0000  0.0000  0.0000  0.0000  0.0000  0.1281  0.0000  0.0000  0.0000 </r>
       </set>
      </set>
     </set>
    </set>
   </array>
  </projected>
 </calculation>
 <structure name="finalpos" >
  <crystal>
   <varray name="basis" >
    <v>      -1.42500000       1.42500000       1.42500000 </v>
    <v>       1.42500000      -1.42500000       1.42500000 </v>
    <v>       1.42500000       1.42500000      -1.42500000 </v>
   </varray>
   <i name="volume">     11.57456250 </i>
   <varray name="rec_basis" >
    <v>       0.00000000       0.35087719       0.35087719 </v>
    <v>       0.35087719       0.00000000       0.35087719 </v>
    <v>       0.35087719       0.35087719       0.00000000 </v>
   </varray>
  </crystal>
  <varray name="positions" >
   <v>       0.00000000       0.00000000       0.00000000 </v>
  </varray>
 </structure>
</modeling>
