Fe FCC                                  
   3.00000000000000     
    -0.500000    0.500000    0.500000
     0.500000   -0.500000    0.500000
     0.500000    0.500000   -0.500000
   Fe
     1
Direct
  0.000000  0.000000  0.000000
 
   36   36   36
  115.10      112.73      105.93      95.547      82.779      68.900      55.064      42.185      30.917      21.673    
  14.646      9.8034      6.8736      5.3652      4.6429      4.1595      3.8229      3.6292      3.5665      3.6292    
  3.8229      4.1595      4.6429      5.3652      6.8736      9.8034      14.646      21.673      30.917      42.185    
  55.064      68.900      82.779      95.547      105.93      112.73      112.73      111.95      106.64      97.488    
  85.580      72.170      58.450      45.404      33.763      24.008      16.400      10.978      7.5498      5.6912    
  4.8077      4.2817      3.9007      3.6641      3.5604      3.5810      3.7277      4.0115      4.4415      5.0351    
  6.1714      8.4946      12.553      18.695      27.038      37.465      49.644      63.011      76.751      89.799    
  100.92      108.89      105.93      106.64      102.96      95.369      84.797      72.408      59.377      46.718    
  35.209      25.385      17.562      11.838      8.0891      5.9661      4.9316      4.3675      3.9538      3.6821    
  3.5421      3.5227      3.6221      3.8491      4.2159      4.7235      5.5360      7.2337      10.399      15.454    
  22.600      31.809      42.834      55.210      68.235      80.963      92.255      100.92      95.547      97.488    
  95.369      89.472      80.538      69.592      57.736      45.964      35.070      25.619      17.961      12.241    
  8.3934      6.1370      5.0020      4.4090      3.9762      3.6796      3.5107      3.4568      3.5123      3.6830    
  3.9820      4.4182      5.0159      6.1601      8.4357      12.319      18.095      25.829      35.368      46.347    
  58.181      70.056      80.963      89.799      82.779      85.580      84.797      80.538      73.353      64.099    
  53.758      43.262      33.383      24.690      17.546      12.125      8.4044      6.1649      5.0046      4.4022    
  3.9641      3.6541      3.4655      3.3845      3.4025      3.5216      3.7539      4.1130      4.6005      5.3416    
  6.8358      9.5877      13.954      20.093      27.950      37.265      47.568      58.181      68.235      76.751    
  68.900      72.170      72.408      69.592      64.099      56.609      47.959      38.982      30.397      22.746    
  16.391      11.512      8.1184      6.0377      4.9327      4.3471      3.9167      3.6048      3.4062      3.3067    
  3.2953      3.3707      3.5421      3.8246      4.2293      4.7610      5.6702      7.4446      10.489      15.047    
  21.165      28.688      37.265      46.347      55.210      63.011      55.064      58.450      59.377      57.736    
  53.758      47.959      41.020      33.658      26.508      20.069      14.677      10.508      7.5861      5.7745    
  4.7921      4.2477      3.8361      3.5328      3.3335      3.2241      3.1921      3.2332      3.3531      3.5656    
  3.8864      4.3216      4.8991      5.9412      7.8670      10.983      15.430      21.165      27.950      35.368    
  42.834      49.644      42.185      45.404      46.718      45.964      43.262      38.982      33.658      27.876    
  22.179      17.003      12.646      9.2692      6.8966      5.4186      4.5999      4.1113      3.7273      3.4414    
  3.2493      3.1376      3.0934      3.1099      3.1894      3.3429      3.5863      3.9332      4.3846      4.9961    
  6.0946      8.0180      10.983      15.047      20.093      25.829      31.809      37.465      30.917      33.763    
  35.209      35.070      33.383      30.397      26.508      22.179      17.853      13.892      10.551      7.9652    
  6.1540      5.0243      4.3784      3.9472      3.5976      3.3356      3.1569      3.0492      2.9998      3.0005    
  3.0508      3.1582      3.3365      3.6010      3.9621      4.4164      5.0312      6.0946      7.8670      10.489    
  13.954      18.095      22.600      27.038      21.673      24.008      25.385      25.619      24.690      22.746    
  20.069      17.003      13.892      11.026      8.6090      6.7476      5.4526      4.6413      4.1460      3.7658    
  3.4551      3.2215      3.0605      2.9613      2.9120      2.9041      2.9353      3.0096      3.1374      3.3326    
  3.6085      3.9717      4.4164      4.9961      5.9412      7.4446      9.5877      12.319      15.454      18.695    
  14.646      16.400      17.562      17.961      17.546      16.391      14.677      12.646      10.551      8.6090    
  6.9737      5.7233      4.8573      4.3000      3.9096      3.5779      3.3086      3.1058      2.9651      2.8770    
  2.8314      2.8204      2.8403      2.8928      2.9847      3.1267      3.3312      3.6085      3.9621      4.3846    
  4.8991      5.6702      6.8358      8.4357      10.399      12.553      9.8034      10.978      11.838      12.241    
  12.125      11.512      10.508      9.2692      7.9652      6.7476      5.7233      4.9419      4.3920      4.0030    
  3.6754      3.3935      3.1661      2.9948      2.8751      2.7996      2.7599      2.7491      2.7636      2.8031    
  2.8716      2.9763      3.1267      3.3326      3.6010      3.9332      4.3216      4.7610      5.3416      6.1601    
  7.2337      8.4946      6.8736      7.5498      8.0891      8.3934      8.4044      8.1184      7.5861      6.8966    
  6.1540      5.4526      4.8573      4.3920      4.0350      3.7283      3.4538      3.2209      3.0343      2.8935    
  2.7947      2.7320      2.6990      2.6906      2.7033      2.7361      2.7908      2.8716      2.9847      3.1374    
  3.3365      3.5863      3.8864      4.2293      4.6005      5.0159      5.5360      6.1714      5.3652      5.6912    
  5.9661      6.1370      6.1649      6.0377      5.7745      5.4186      5.0243      4.6413      4.3000      4.0030    
  3.7283      3.4754      3.2530      3.0665      2.9178      2.8057      2.7266      2.6763      2.6504      2.6453    
  2.6584      2.6885      2.7361      2.8031      2.8928      3.0096      3.1582      3.3429      3.5656      3.8246    
  4.1130      4.4182      4.7235      5.0351      4.6429      4.8077      4.9316      5.0020      5.0046      4.9327    
  4.7921      4.5999      4.3784      4.1460      3.9096      3.6754      3.4538      3.2530      3.0788      2.9343    
  2.8195      2.7331      2.6721      2.6336      2.6149      2.6136      2.6284      2.6584      2.7033      2.7636    
  2.8403      2.9353      3.0508      3.1894      3.3531      3.5421      3.7539      3.9820      4.2159      4.4415    
  4.1595      4.2817      4.3675      4.4090      4.4022      4.3471      4.2477      4.1113      3.9472      3.7658    
  3.5779      3.3935      3.2209      3.0665      2.9343      2.8256      2.7400      2.6760      2.6314      2.6041    
  2.5926      2.5960      2.6136      2.6453      2.6906      2.7491      2.8204      2.9041      3.0005      3.1099    
  3.2332      3.3707      3.5216      3.6830      3.8491      4.0115      3.8229      3.9007      3.9538      3.9762    
  3.9641      3.9167      3.8361      3.7273      3.5976      3.4551      3.3086      3.1661      3.0343      2.9178    
  2.8195      2.7400      2.6786      2.6337      2.6036      2.5871      2.5834      2.5926      2.6149      2.6504    
  2.6990      2.7599      2.8314      2.9120      2.9998      3.0934      3.1921      3.2953      3.4025      3.5123    
  3.6221      3.7277      3.6292      3.6641      3.6821      3.6796      3.6541      3.6048      3.5328      3.4414    
  3.3356      3.2215      3.1058      2.9948      2.8935      2.8057      2.7331      2.6760      2.6337      2.6047    
  2.5876      2.5818      2.5871      2.6041      2.6336      2.6763      2.7320      2.7996      2.8770      2.9613    
  3.0492      3.1376      3.2241      3.3067      3.3845      3.4568      3.5227      3.5810      3.5665      3.5604    
  3.5421      3.5107      3.4655      3.4062      3.3335      3.2493      3.1569      3.0605      2.9651      2.8751    
  2.7947      2.7266      2.6721      2.6314      2.6036      2.5876      2.5824      2.5876      2.6036      2.6314    
  2.6721      2.7266      2.7947      2.8751      2.9651      3.0605      3.1569      3.2493      3.3335      3.4062    
  3.4655      3.5107      3.5421      3.5604      3.6292      3.5810      3.5227      3.4568      3.3845      3.3067    
  3.2241      3.1376      3.0492      2.9613      2.8770      2.7996      2.7320      2.6763      2.6336      2.6041    
  2.5871      2.5818      2.5876      2.6047      2.6337      2.6760      2.7331      2.8057      2.8935      2.9948    
  3.1058      3.2215      3.3356      3.4414      3.5328      3.6048      3.6541      3.6796      3.6821      3.6641    
  3.8229      3.7277      3.6221      3.5123      3.4025      3.2953      3.1921      3.0934      2.9998      2.9120    
  2.8314      2.7599      2.6990      2.6504      2.6149      2.5926      2.5834      2.5871      2.6036      2.6337    
  2.6786      2.7400      2.8195      2.9178      3.0343      3.1661      3.3086      3.4551      3.5976      3.7273    
  3.8361      3.9167      3.9641      3.9762      3.9538      3.9007      4.1595      4.0115      3.8491      3.6830    
  3.5216      3.3707      3.2332      3.1099      3.0005      2.9041      2.8204      2.7491      2.6906      2.6453    
  2.6136      2.5960      2.5926      2.6041      2.6314      2.6760      2.7400      2.8256      2.9343      3.0665    
  3.2209      3.3935      3.5779      3.7658      3.9472      4.1113      4.2477      4.3471      4.4022      4.4090    
  4.3675      4.2817      4.6429      4.4415      4.2159      3.9820      3.7539      3.5421      3.3531      3.1894    
  3.0508      2.9353      2.8403      2.7636      2.7033      2.6584      2.6284      2.6136      2.6149      2.6336    
  2.6721      2.7331      2.8195      2.9343      3.0788      3.2530      3.4538      3.6754      3.9096      4.1460    
  4.3784      4.5999      4.7921      4.9327      5.0046      5.0020      4.9316      4.8077      5.3652      5.0351    
  4.7235      4.4182      4.1130      3.8246      3.5656      3.3429      3.1582      3.0096      2.8928      2.8031    
  2.7361      2.6885      2.6584      2.6453      2.6504      2.6763      2.7266      2.8057      2.9178      3.0665    
  3.2530      3.4754      3.7283      4.0030      4.3000      4.6413      5.0243      5.4186      5.7745      6.0377    
  6.1649      6.1370      5.9661      5.6912      6.8736      6.1714      5.5360      5.0159      4.6005      4.2293    
  3.8864      3.5863      3.3365      3.1374      2.9847      2.8716      2.7908      2.7361      2.7033      2.6906    
  2.6990      2.7320      2.7947      2.8935      3.0343      3.2209      3.4538      3.7283      4.0350      4.3920    
  4.8573      5.4526      6.1540      6.8966      7.5861      8.1184      8.4044      8.3934      8.0891      7.5498    
  9.8034      8.4946      7.2337      6.1601      5.3416      4.7610      4.3216      3.9332      3.6010      3.3326    
  3.1267      2.9763      2.8716      2.8031      2.7636      2.7491      2.7599      2.7996      2.8751      2.9948    
  3.1661      3.3935      3.6754      4.0030      4.3920      4.9419      5.7233      6.7476      7.9652      9.2692    
  10.508      11.512      12.125      12.241      11.838      10.978      14.646      12.553      10.399      8.4357    
  6.8358      5.6702      4.8991      4.3846      3.9621      3.6085      3.3312      3.1267      2.9847      2.8928    
  2.8403      2.8204      2.8314      2.8770      2.9651      3.1058      3.3086      3.5779      3.9096      4.3000    
  4.8573      5.7233      6.9737      8.6090      10.551      12.646      14.677      16.391      17.546      17.961    
  17.562      16.400      21.673      18.695      15.454      12.319      9.5877      7.4446      5.9412      4.9961    
  4.4164      3.9717      3.6085      3.3326      3.1374      3.0096      2.9353      2.9041      2.9120      2.9613    
  3.0605      3.2215      3.4551      3.7658      4.1460      4.6413      5.4526      6.7476      8.6090      11.026    
  13.892      17.003      20.069      22.746      24.690      25.619      25.385      24.008      30.917      27.038    
  22.600      18.095      13.954      10.489      7.8670      6.0946      5.0312      4.4164      3.9621      3.6010    
  3.3365      3.1582      3.0508      3.0005      2.9998      3.0492      3.1569      3.3356      3.5976      3.9472    
  4.3784      5.0243      6.1540      7.9652      10.551      13.892      17.853      22.179      26.508      30.397    
  33.383      35.070      35.209      33.763      42.185      37.465      31.809      25.829      20.093      15.047    
  10.983      8.0180      6.0946      4.9961      4.3846      3.9332      3.5863      3.3429      3.1894      3.1099    
  3.0934      3.1376      3.2493      3.4414      3.7273      4.1113      4.5999      5.4186      6.8966      9.2692    
  12.646      17.003      22.179      27.876      33.658      38.982      43.262      45.964      46.718      45.404    
  55.064      49.644      42.834      35.368      27.950      21.165      15.430      10.983      7.8670      5.9412    
  4.8991      4.3216      3.8864      3.5656      3.3531      3.2332      3.1921      3.2241      3.3335      3.5328    
  3.8361      4.2477      4.7921      5.7745      7.5861      10.508      14.677      20.069      26.508      33.658    
  41.020      47.959      53.758      57.736      59.377      58.450      68.900      63.011      55.210      46.347    
  37.265      28.688      21.165      15.047      10.489      7.4446      5.6702      4.7610      4.2293      3.8246    
  3.5421      3.3707      3.2953      3.3067      3.4062      3.6048      3.9167      4.3471      4.9327      6.0377    
  8.1184      11.512      16.391      22.746      30.397      38.982      47.959      56.609      64.099      69.592    
  72.408      72.170      82.779      76.751      68.235      58.181      47.568      37.265      27.950      20.093    
  13.954      9.5877      6.8358      5.3416      4.6005      4.1130      3.7539      3.5216      3.4025      3.3845    
  3.4655      3.6541      3.9641      4.4022      5.0046      6.1649      8.4044      12.125      17.546      24.690    
  33.383      43.262      53.758      64.099      73.353      80.538      84.797      85.580      95.547      89.799    
  80.963      70.056      58.181      46.347      35.368      25.829      18.095      12.319      8.4357      6.1601    
  5.0159      4.4182      3.9820      3.6830      3.5123      3.4568      3.5107      3.6796      3.9762      4.4090    
  5.0020      6.1370      8.3934      12.241      17.961      25.619      35.070      45.964      57.736      69.592    
  80.538      89.472      95.369      97.488      105.93      100.92      92.255      80.963      68.235      55.210    
  42.834      31.809      22.600      15.454      10.399      7.2337      5.5360      4.7235      4.2159      3.8491    
  3.6221      3.5227      3.5421      3.6821      3.9538      4.3675      4.9316      5.9661      8.0891      11.838    
  17.562      25.385      35.209      46.718      59.377      72.408      84.797      95.369      102.96      106.64    
  112.73      108.89      100.92      89.799      76.751      63.011      49.644      37.465      27.038      18.695    
  12.553      8.4946      6.1714      5.0351      4.4415      4.0115      3.7277      3.5810      3.5604      3.6641    
  3.9007      4.2817      4.8077      5.6912      7.5498      10.978      16.400      24.008      33.763      45.404    
  58.450      72.170      85.580      97.488      106.64      111.95      112.73      111.95      106.64      97.488    
  85.580      72.170      58.450      45.404      33.763      24.008      16.400      10.978      7.5498      5.6912    
  4.8077      4.2817      3.9007      3.6641      3.5604      3.5810      3.7277      4.0115      4.4415      5.0351    
  6.1714      8.4946      12.553      18.695      27.038      37.465      49.644      63.011      76.751      89.799    
  100.92      108.89      111.95      112.73      108.89      100.92      89.799      76.751      63.011      49.644    
  37.465      27.038      18.695      12.553      8.4946      6.1714      5.0351      4.4415      4.0115      3.7277    
  3.5810      3.5604      3.6641      3.9007      4.2817      4.8077      5.6912      7.5498      10.978      16.400    
  24.008      33.763      45.404      58.450      72.170      85.580      97.488      106.64      106.64      108.89    
  106.64      100.18      90.328      78.208      65.038      51.916      39.719      29.073      20.374      13.798    
  9.3018      6.6099      5.2365      4.5636      4.0970      3.7738      3.5884      3.5285      3.5884      3.7738    
  4.0970      4.5636      5.2365      6.6099      9.3018      13.798      20.374      29.073      39.719      51.916    
  65.038      78.208      90.328      100.18      97.488      100.92      100.18      95.369      87.100      76.357    
  64.274      51.934      40.235      29.843      21.197      14.523      9.8360      6.9289      5.3853      4.6380    
  4.1491      3.7974      3.5806      3.4862      3.5052      3.6397      3.9010      4.3004      4.8413      5.7888    
  7.7355      11.211      16.568      23.939      33.236      44.157      56.183      68.561      80.317      90.328    
  85.580      89.799      90.328      87.100      80.538      71.446      60.832      49.710      38.958      29.252    
  21.053      14.617      10.004      7.0645      5.4513      4.6597      4.1621      3.7941      3.5557      3.4340    
  3.4179      3.5054      3.7058      4.0329      4.4926      5.1435      6.4347      8.9111      12.988      18.886    
  26.611      35.960      46.521      57.668      68.561      78.208      72.170      76.751      78.208      76.357    
  71.446      64.099      55.165      45.552      36.080      27.402      19.976      14.072      9.7759      6.9858    
  5.4152      4.6261      4.1336      3.7620      3.5122      3.3721      3.3284      3.3761      3.5209      3.7767    
  4.1565      4.6604      5.4681      7.0765      9.9385      14.352      20.419      28.038      36.907      46.521    
  56.183      65.038      58.450      63.011      65.038      64.274      60.832      55.165      47.959      39.989    
  31.989      24.559      18.136      12.981      9.1942      6.7040      5.2766      4.5387      4.0647      3.7013    
  3.4505      3.3008      3.2381      3.2545      3.3523      3.5432      3.8429      4.2605      4.8078      5.7678    
  7.5929      10.637      15.090      20.954      28.038      35.960      44.157      51.916      45.404      49.644    
  51.916      51.934      49.710      45.552      39.989      33.658      27.184      21.099      15.795      11.516    
  8.3571      6.2676      5.0551      4.4045      3.9602      3.6148      3.3720      3.2210      3.1476      3.1418    
  3.2027      3.3388      3.5653      3.8970      4.3377      4.9250      5.9805      7.8801      10.883      15.090    
  20.419      26.611      33.236      39.719      33.763      37.465      39.719      40.235      38.958      36.080    
  31.989      27.184      22.179      17.423      13.253      9.8821      7.3940      5.7480      4.7834      4.2352    
  3.8270      3.5076      3.2801      3.1348      3.0577      3.0381      3.0724      3.1657      3.3305      3.5828    
  3.9346      4.3847      4.9912      6.0575      7.8801      10.637      14.352      18.886      23.939      29.073    
  24.008      27.038      29.073      29.843      29.252      27.402      24.559      21.099      17.423      13.892    
  10.786      8.2772      6.4345      5.2199      4.4961      4.0416      3.6741      3.3862      3.1795      3.0450    
  2.9699      2.9434      2.9604      3.0228      3.1398      3.3253      3.5937      3.9536      4.4005      4.9912    
  5.9805      7.5929      9.9385      12.988      16.568      20.374      16.400      18.695      20.374      21.197    
  21.053      19.976      18.136      15.795      13.253      10.786      8.6090      6.8588      5.5826      4.7421    
  4.2183      3.8342      3.5111      3.2582      3.0757      2.9554      2.8861      2.8580      2.8651      2.9071    
  2.9898      3.1239      3.3225      3.5973      3.9536      4.3847      4.9250      5.7678      7.0765      8.9111    
  11.211      13.798      10.978      12.553      13.798      14.523      14.617      14.072      12.981      11.516    
  9.8821      8.2772      6.8588      5.7233      4.8987      4.3442      3.9553      3.6244      3.3473      3.1310    
  2.9742      2.8698      2.8088      2.7825      2.7852      2.8152      2.8754      2.9732      3.1185      3.3225    
  3.5937      3.9346      4.3377      4.8078      5.4681      6.4347      7.7355      9.3018      7.5498      8.4946    
  9.3018      9.8360      10.004      9.7759      9.1942      8.3571      7.3940      6.4345      5.5826      4.8987    
  4.3920      4.0189      3.7013      3.4223      3.1911      3.0111      2.8800      2.7922      2.7405      2.7180    
  2.7198      2.7436      2.7906      2.8648      2.9732      3.1239      3.3253      3.5828      3.8970      4.2605    
  4.6604      5.1435      5.7888      6.6099      5.6912      6.1714      6.6099      6.9289      7.0645      6.9858    
  6.7040      6.2676      5.7480      5.2199      4.7421      4.3442      4.0189      3.7283      3.4644      3.2363    
  3.0490      2.9035      2.7971      2.7255      2.6832      2.6654      2.6684      2.6900      2.7300      2.7906    
  2.8754      2.9898      3.1398      3.3305      3.5653      3.8429      4.1565      4.4926      4.8413      5.2365    
  4.8077      5.0351      5.2365      5.3853      5.4513      5.4152      5.2766      5.0551      4.7834      4.4961    
  4.2183      3.9553      3.7013      3.4644      3.2530      3.0725      2.9255      2.8113      2.7278      2.6714    
  2.6384      2.6258      2.6311      2.6526      2.6900      2.7436      2.8152      2.9071      3.0228      3.1657    
  3.3388      3.5432      3.7767      4.0329      4.3004      4.5636      4.2817      4.4415      4.5636      4.6380    
  4.6597      4.6261      4.5387      4.4045      4.2352      4.0416      3.8342      3.6244      3.4223      3.2363    
  3.0725      2.9343      2.8224      2.7360      2.6729      2.6305      2.6067      2.5996      2.6080      2.6311    
  2.6684      2.7198      2.7852      2.8651      2.9604      3.0724      3.2027      3.3523      3.5209      3.7058    
  3.9010      4.0970      3.9007      4.0115      4.0970      4.1491      4.1621      4.1336      4.0647      3.9602    
  3.8270      3.6741      3.5111      3.3473      3.1911      3.0490      2.9255      2.8224      2.7400      2.6772    
  2.6320      2.6027      2.5879      2.5870      2.5996      2.6258      2.6654      2.7180      2.7825      2.8580    
  2.9434      3.0381      3.1418      3.2545      3.3761      3.5054      3.6397      3.7738      3.6641      3.7277    
  3.7738      3.7974      3.7941      3.7620      3.7013      3.6148      3.5076      3.3862      3.2582      3.1310    
  3.0111      2.9035      2.8113      2.7360      2.6772      2.6337      2.6040      2.5868      2.5814      2.5879    
  2.6067      2.6384      2.6832      2.7405      2.8088      2.8861      2.9699      3.0577      3.1476      3.2381    
  3.3284      3.4179      3.5052      3.5884      3.5604      3.5810      3.5884      3.5806      3.5557      3.5122    
  3.4505      3.3720      3.2801      3.1795      3.0757      2.9742      2.8800      2.7971      2.7278      2.6729    
  2.6320      2.6040      2.5876      2.5820      2.5868      2.6027      2.6305      2.6714      2.7255      2.7922    
  2.8698      2.9554      3.0450      3.1348      3.2210      3.3008      3.3721      3.4340      3.4862      3.5285    
  3.5810      3.5604      3.5285      3.4862      3.4340      3.3721      3.3008      3.2210      3.1348      3.0450    
  2.9554      2.8698      2.7922      2.7255      2.6714      2.6305      2.6027      2.5868      2.5820      2.5876    
  2.6040      2.6320      2.6729      2.7278      2.7971      2.8800      2.9742      3.0757      3.1795      3.2801    
  3.3720      3.4505      3.5122      3.5557      3.5806      3.5884      3.7277      3.6641      3.5884      3.5052    
  3.4179      3.3284      3.2381      3.1476      3.0577      2.9699      2.8861      2.8088      2.7405      2.6832    
  2.6384      2.6067      2.5879      2.5814      2.5868      2.6040      2.6337      2.6772      2.7360      2.8113    
  2.9035      3.0111      3.1310      3.2582      3.3862      3.5076      3.6148      3.7013      3.7620      3.7941    
  3.7974      3.7738      4.0115      3.9007      3.7738      3.6397      3.5054      3.3761      3.2545      3.1418    
  3.0381      2.9434      2.8580      2.7825      2.7180      2.6654      2.6258      2.5996      2.5870      2.5879    
  2.6027      2.6320      2.6772      2.7400      2.8224      2.9255      3.0490      3.1911      3.3473      3.5111    
  3.6741      3.8270      3.9602      4.0647      4.1336      4.1621      4.1491      4.0970      4.4415      4.2817    
  4.0970      3.9010      3.7058      3.5209      3.3523      3.2027      3.0724      2.9604      2.8651      2.7852    
  2.7198      2.6684      2.6311      2.6080      2.5996      2.6067      2.6305      2.6729      2.7360      2.8224    
  2.9343      3.0725      3.2363      3.4223      3.6244      3.8342      4.0416      4.2352      4.4045      4.5387    
  4.6261      4.6597      4.6380      4.5636      5.0351      4.8077      4.5636      4.3004      4.0329      3.7767    
  3.5432      3.3388      3.1657      3.0228      2.9071      2.8152      2.7436      2.6900      2.6526      2.6311    
  2.6258      2.6384      2.6714      2.7278      2.8113      2.9255      3.0725      3.2530      3.4644      3.7013    
  3.9553      4.2183      4.4961      4.7834      5.0551      5.2766      5.4152      5.4513      5.3853      5.2365    
  6.1714      5.6912      5.2365      4.8413      4.4926      4.1565      3.8429      3.5653      3.3305      3.1398    
  2.9898      2.8754      2.7906      2.7300      2.6900      2.6684      2.6654      2.6832      2.7255      2.7971    
  2.9035      3.0490      3.2363      3.4644      3.7283      4.0189      4.3442      4.7421      5.2199      5.7480    
  6.2676      6.7040      6.9858      7.0645      6.9289      6.6099      8.4946      7.5498      6.6099      5.7888    
  5.1435      4.6604      4.2605      3.8970      3.5828      3.3253      3.1239      2.9732      2.8648      2.7906    
  2.7436      2.7198      2.7180      2.7405      2.7922      2.8800      3.0111      3.1911      3.4223      3.7013    
  4.0189      4.3920      4.8987      5.5826      6.4345      7.3940      8.3571      9.1942      9.7759      10.004    
  9.8360      9.3018      12.553      10.978      9.3018      7.7355      6.4347      5.4681      4.8078      4.3377    
  3.9346      3.5937      3.3225      3.1185      2.9732      2.8754      2.8152      2.7852      2.7825      2.8088    
  2.8698      2.9742      3.1310      3.3473      3.6244      3.9553      4.3442      4.8987      5.7233      6.8588    
  8.2772      9.8821      11.516      12.981      14.072      14.617      14.523      13.798      18.695      16.400    
  13.798      11.211      8.9111      7.0765      5.7678      4.9250      4.3847      3.9536      3.5973      3.3225    
  3.1239      2.9898      2.9071      2.8651      2.8580      2.8861      2.9554      3.0757      3.2582      3.5111    
  3.8342      4.2183      4.7421      5.5826      6.8588      8.6090      10.786      13.253      15.795      18.136    
  19.976      21.053      21.197      20.374      27.038      24.008      20.374      16.568      12.988      9.9385    
  7.5929      5.9805      4.9912      4.4005      3.9536      3.5937      3.3253      3.1398      3.0228      2.9604    
  2.9434      2.9699      3.0450      3.1795      3.3862      3.6741      4.0416      4.4961      5.2199      6.4345    
  8.2772      10.786      13.892      17.423      21.099      24.559      27.402      29.252      29.843      29.073    
  37.465      33.763      29.073      23.939      18.886      14.352      10.637      7.8801      6.0575      4.9912    
  4.3847      3.9346      3.5828      3.3305      3.1657      3.0724      3.0381      3.0577      3.1348      3.2801    
  3.5076      3.8270      4.2352      4.7834      5.7480      7.3940      9.8821      13.253      17.423      22.179    
  27.184      31.989      36.080      38.958      40.235      39.719      49.644      45.404      39.719      33.236    
  26.611      20.419      15.090      10.883      7.8801      5.9805      4.9250      4.3377      3.8970      3.5653    
  3.3388      3.2027      3.1418      3.1476      3.2210      3.3720      3.6148      3.9602      4.4045      5.0551    
  6.2676      8.3571      11.516      15.795      21.099      27.184      33.658      39.989      45.552      49.710    
  51.934      51.916      63.011      58.450      51.916      44.157      35.960      28.038      20.954      15.090    
  10.637      7.5929      5.7678      4.8078      4.2605      3.8429      3.5432      3.3523      3.2545      3.2381    
  3.3008      3.4505      3.7013      4.0647      4.5387      5.2766      6.7040      9.1942      12.981      18.136    
  24.559      31.989      39.989      47.959      55.165      60.832      64.274      65.038      76.751      72.170    