Fe FCC                                  
   3.00000000000000     
    -0.500000    0.500000    0.500000
     0.500000   -0.500000    0.500000
     0.500000    0.500000   -0.500000
   Fe
     1
Direct
  0.000000  0.000000  0.000000
 
   36   36   36
 0.11510347021E+03 0.11273180693E+03 0.10592819852E+03 0.95546976641E+02 0.82779036823E+02
 0.68900487762E+02 0.55064114718E+02 0.42184995762E+02 0.30916537572E+02 0.21672508452E+02
 0.14645846742E+02 0.98033833855E+01 0.68736333419E+01 0.53651627734E+01 0.46428808027E+01
 0.41595158405E+01 0.38229346402E+01 0.36291967655E+01 0.35664650194E+01 0.36291967655E+01
 0.38229346402E+01 0.41595158405E+01 0.46428808027E+01 0.53651627734E+01 0.68736333419E+01
 0.98033833855E+01 0.14645846742E+02 0.21672508452E+02 0.30916537572E+02 0.42184995762E+02
 0.55064114718E+02 0.68900487762E+02 0.82779036823E+02 0.95546976641E+02 0.10592819852E+03
 0.11273180693E+03 0.11273180693E+03 0.11194697365E+03 0.10663898315E+03 0.97487573561E+02
 0.85580261701E+02 0.72170261227E+02 0.58449781194E+02 0.45404381874E+02 0.33762634837E+02
 0.24007633159E+02 0.16399690561E+02 0.10978447683E+02 0.75498400510E+01 0.56912239512E+01
 0.48077113148E+01 0.42816902161E+01 0.39007096946E+01 0.36641229063E+01 0.35604481390E+01
 0.35810000089E+01 0.37276958180E+01 0.40114957902E+01 0.44415041037E+01 0.50350537524E+01
 0.61713943717E+01 0.84946444534E+01 0.12552640927E+02 0.18695316433E+02 0.27037716708E+02
 0.37465157280E+02 0.49643980045E+02 0.63011358701E+02 0.76751423020E+02 0.89799032896E+02
 0.10092032101E+03 0.10888986684E+03 0.10592819852E+03 0.10663898315E+03 0.10295992510E+03
 0.95369388549E+02 0.84796836370E+02 0.72407913973E+02 0.59376607223E+02 0.46717502892E+02
 0.35208536728E+02 0.25385408664E+02 0.17561843524E+02 0.11837706129E+02 0.80891185379E+01
 0.59660694221E+01 0.49315500014E+01 0.43674970730E+01 0.39538247416E+01 0.36820875288E+01
 0.35421057695E+01 0.35227438096E+01 0.36221254924E+01 0.38490953162E+01 0.42159212310E+01
 0.47235156119E+01 0.55359755648E+01 0.72336907173E+01 0.10399373151E+02 0.15454439205E+02
 0.22600176216E+02 0.31808709070E+02 0.42833768132E+02 0.55210045250E+02 0.68235204969E+02
 0.80963201912E+02 0.92255409094E+02 0.10092032101E+03 0.95546976641E+02 0.97487573561E+02
 0.95369388549E+02 0.89472440447E+02 0.80537870595E+02 0.69592345954E+02 0.57735567447E+02
 0.45963568375E+02 0.35069622078E+02 0.25619020374E+02 0.17961344259E+02 0.12241286940E+02
 0.83934041187E+01 0.61369716465E+01 0.50019938755E+01 0.44090337097E+01 0.39762381757E+01
 0.36795968605E+01 0.35107107765E+01 0.34567609281E+01 0.35122607835E+01 0.36829745335E+01
 0.39820242201E+01 0.44181540615E+01 0.50159345999E+01 0.61600907677E+01 0.84357189541E+01
 0.12319170272E+02 0.18095497358E+02 0.25829399870E+02 0.35368222253E+02 0.46347126385E+02
 0.58180832974E+02 0.70056190355E+02 0.80963201912E+02 0.89799032896E+02 0.82779036823E+02
 0.85580261701E+02 0.84796836370E+02 0.80537870595E+02 0.73352677622E+02 0.64098955432E+02
 0.53757901968E+02 0.43262090072E+02 0.33383323800E+02 0.24689532477E+02 0.17545869078E+02
 0.12124657637E+02 0.84043514260E+01 0.61648520643E+01 0.50046369181E+01 0.44021869077E+01
 0.39641494808E+01 0.36541316398E+01 0.34654977603E+01 0.33844711431E+01 0.34024536076E+01
 0.35216291281E+01 0.37538842992E+01 0.41129800552E+01 0.46005482229E+01 0.53415954381E+01
 0.68357679964E+01 0.95876581736E+01 0.13954095763E+02 0.20092858728E+02 0.27950342857E+02
 0.37265212870E+02 0.47568349472E+02 0.58180832974E+02 0.68235204969E+02 0.76751423020E+02
 0.68900487762E+02 0.72170261227E+02 0.72407913973E+02 0.69592345954E+02 0.64098955432E+02
 0.56609039302E+02 0.47958731859E+02 0.38982333252E+02 0.30396952246E+02 0.22746375304E+02
 0.16390621558E+02 0.11512308235E+02 0.81184195033E+01 0.60377331308E+01 0.49327379075E+01
 0.43470621185E+01 0.39166882917E+01 0.36048180358E+01 0.34061843988E+01 0.33066768826E+01
 0.32953168802E+01 0.33707290757E+01 0.35420871026E+01 0.38245954362E+01 0.42293108920E+01
 0.47609771743E+01 0.56702219446E+01 0.74446128899E+01 0.10489439142E+02 0.15047033042E+02
 0.21164652839E+02 0.28688380216E+02 0.37265212870E+02 0.46347126385E+02 0.55210045250E+02
 0.63011358701E+02 0.55064114718E+02 0.58449781194E+02 0.59376607223E+02 0.57735567447E+02
 0.53757901968E+02 0.47958731859E+02 0.41020349311E+02 0.33657654772E+02 0.26508144449E+02
 0.20068919731E+02 0.14676544477E+02 0.10508492844E+02 0.75860961641E+01 0.57745070739E+01
 0.47921088757E+01 0.42476971499E+01 0.38360826571E+01 0.35328243149E+01 0.33334560252E+01
 0.32240529508E+01 0.31921223394E+01 0.32332062480E+01 0.33530615708E+01 0.35655987338E+01
 0.38863603399E+01 0.43216140132E+01 0.48991437510E+01 0.59412065448E+01 0.78670356867E+01
 0.10982958713E+02 0.15430493420E+02 0.21164652839E+02 0.27950342857E+02 0.35368222253E+02
 0.42833768132E+02 0.49643980045E+02 0.42184995762E+02 0.45404381874E+02 0.46717502892E+02
 0.45963568375E+02 0.43262090072E+02 0.38982333252E+02 0.33657654772E+02 0.27875564771E+02
 0.22179095219E+02 0.17002814690E+02 0.12646023950E+02 0.92691780770E+01 0.68966010678E+01
 0.54185779945E+01 0.45999273155E+01 0.41112826755E+01 0.37273389401E+01 0.34413993129E+01
 0.32492668719E+01 0.31376454361E+01 0.30934387443E+01 0.31099015704E+01 0.31893871487E+01
 0.33428927331E+01 0.35863196628E+01 0.39332170420E+01 0.43845955331E+01 0.49960943591E+01
 0.60946245546E+01 0.80179758984E+01 0.10982958713E+02 0.15047033042E+02 0.20092858728E+02
 0.25829399870E+02 0.31808709070E+02 0.37465157280E+02 0.30916537572E+02 0.33762634837E+02
 0.35208536728E+02 0.35069622078E+02 0.33383323800E+02 0.30396952246E+02 0.26508144449E+02
 0.22179095219E+02 0.17852686159E+02 0.13892192181E+02 0.10551087462E+02 0.79651712899E+01
 0.61540207572E+01 0.50243402050E+01 0.43784315128E+01 0.39471650480E+01 0.35975672711E+01
 0.33355590953E+01 0.31568660720E+01 0.30492102134E+01 0.29997654416E+01 0.30004555307E+01
 0.30507692256E+01 0.31582234049E+01 0.33364923361E+01 0.36010124994E+01 0.39620562715E+01
 0.44163947801E+01 0.50312359185E+01 0.60946245546E+01 0.78670356867E+01 0.10489439142E+02
 0.13954095763E+02 0.18095497358E+02 0.22600176216E+02 0.27037716708E+02 0.21672508452E+02
 0.24007633159E+02 0.25385408664E+02 0.25619020374E+02 0.24689532477E+02 0.22746375304E+02
 0.20068919731E+02 0.17002814690E+02 0.13892192181E+02 0.11026319337E+02 0.86090027960E+01
 0.67475945767E+01 0.54526007844E+01 0.46412687681E+01 0.41459992916E+01 0.37658303936E+01
 0.34551104859E+01 0.32214958450E+01 0.30605303399E+01 0.29612864167E+01 0.29119675573E+01
 0.29041360973E+01 0.29352534778E+01 0.30095679484E+01 0.31373782179E+01 0.33325922100E+01
 0.36084682893E+01 0.39717437840E+01 0.44163947801E+01 0.49960943591E+01 0.59412065448E+01
 0.74446128899E+01 0.95876581736E+01 0.12319170272E+02 0.15454439205E+02 0.18695316433E+02
 0.14645846742E+02 0.16399690561E+02 0.17561843524E+02 0.17961344259E+02 0.17545869078E+02
 0.16390621558E+02 0.14676544477E+02 0.12646023950E+02 0.10551087462E+02 0.86090027960E+01
 0.69737448495E+01 0.57232922247E+01 0.48572898678E+01 0.43000125408E+01 0.39096153654E+01
 0.35779487601E+01 0.33086083806E+01 0.31058209900E+01 0.29650578373E+01 0.28769879042E+01
 0.28314173007E+01 0.28204032637E+01 0.28403110084E+01 0.28927914378E+01 0.29846692622E+01
 0.31267135595E+01 0.33312335149E+01 0.36084682893E+01 0.39620562715E+01 0.43845955331E+01
 0.48991437510E+01 0.56702219446E+01 0.68357679964E+01 0.84357189541E+01 0.10399373151E+02
 0.12552640927E+02 0.98033833855E+01 0.10978447683E+02 0.11837706129E+02 0.12241286940E+02
 0.12124657637E+02 0.11512308235E+02 0.10508492844E+02 0.92691780770E+01 0.79651712899E+01
 0.67475945767E+01 0.57232922247E+01 0.49419145705E+01 0.43920209065E+01 0.40029632678E+01
 0.36754461256E+01 0.33934856665E+01 0.31660993713E+01 0.29947714738E+01 0.28751349095E+01
 0.27995804964E+01 0.27598514317E+01 0.27491442391E+01 0.27635917988E+01 0.28031089022E+01
 0.28715667221E+01 0.29762689666E+01 0.31267135595E+01 0.33325922100E+01 0.36010124994E+01
 0.39332170420E+01 0.43216140132E+01 0.47609771743E+01 0.53415954381E+01 0.61600907677E+01
 0.72336907173E+01 0.84946444534E+01 0.68736333419E+01 0.75498400510E+01 0.80891185379E+01
 0.83934041187E+01 0.84043514260E+01 0.81184195033E+01 0.75860961641E+01 0.68966010678E+01
 0.61540207572E+01 0.54526007844E+01 0.48572898678E+01 0.43920209065E+01 0.40350482111E+01
 0.37282790357E+01 0.34537691137E+01 0.32209025752E+01 0.30342546262E+01 0.28935115098E+01
 0.27947189997E+01 0.27319750632E+01 0.26990419159E+01 0.26906295105E+01 0.27033176841E+01
 0.27361380651E+01 0.27908045661E+01 0.28715667221E+01 0.29846692622E+01 0.31373782179E+01
 0.33364923361E+01 0.35863196628E+01 0.38863603399E+01 0.42293108920E+01 0.46005482229E+01
 0.50159345999E+01 0.55359755648E+01 0.61713943717E+01 0.53651627734E+01 0.56912239512E+01
 0.59660694221E+01 0.61369716465E+01 0.61648520643E+01 0.60377331308E+01 0.57745070739E+01
 0.54185779945E+01 0.50243402050E+01 0.46412687681E+01 0.43000125408E+01 0.40029632678E+01
 0.37282790357E+01 0.34753639476E+01 0.32529776926E+01 0.30665320372E+01 0.29178460113E+01
 0.28056501190E+01 0.27265791794E+01 0.26762910036E+01 0.26504287480E+01 0.26453153272E+01
 0.26584034719E+01 0.26885473805E+01 0.27361380651E+01 0.28031089022E+01 0.28927914378E+01
 0.30095679484E+01 0.31582234049E+01 0.33428927331E+01 0.35655987338E+01 0.38245954362E+01
 0.41129800552E+01 0.44181540615E+01 0.47235156119E+01 0.50350537524E+01 0.46428808027E+01
 0.48077113148E+01 0.49315500014E+01 0.50019938755E+01 0.50046369181E+01 0.49327379075E+01
 0.47921088757E+01 0.45999273155E+01 0.43784315128E+01 0.41459992916E+01 0.39096153654E+01
 0.36754461256E+01 0.34537691137E+01 0.32529776926E+01 0.30788371774E+01 0.29342545936E+01
 0.28195385682E+01 0.27330606750E+01 0.26720984997E+01 0.26336224422E+01 0.26148671375E+01
 0.26136431837E+01 0.26284383487E+01 0.26584034719E+01 0.27033176841E+01 0.27635917988E+01
 0.28403110084E+01 0.29352534778E+01 0.30507692256E+01 0.31893871487E+01 0.33530615708E+01
 0.35420871026E+01 0.37538842992E+01 0.39820242201E+01 0.42159212310E+01 0.44415041037E+01
 0.41595158405E+01 0.42816902161E+01 0.43674970730E+01 0.44090337097E+01 0.44021869077E+01
 0.43470621185E+01 0.42476971499E+01 0.41112826755E+01 0.39471650480E+01 0.37658303936E+01
 0.35779487601E+01 0.33934856665E+01 0.32209025752E+01 0.30665320372E+01 0.29342545936E+01
 0.28255698198E+01 0.27400482303E+01 0.26760312020E+01 0.26313784425E+01 0.26040758687E+01
 0.25925912598E+01 0.25959577204E+01 0.26136431837E+01 0.26453153272E+01 0.26906295105E+01
 0.27491442391E+01 0.28204032637E+01 0.29041360973E+01 0.30004555307E+01 0.31099015704E+01
 0.32332062480E+01 0.33707290757E+01 0.35216291281E+01 0.36829745335E+01 0.38490953162E+01
 0.40114957902E+01 0.38229346402E+01 0.39007096946E+01 0.39538247416E+01 0.39762381757E+01
 0.39641494808E+01 0.39166882917E+01 0.38360826571E+01 0.37273389401E+01 0.35975672711E+01
 0.34551104859E+01 0.33086083806E+01 0.31660993713E+01 0.30342546262E+01 0.29178460113E+01
 0.28195385682E+01 0.27400482303E+01 0.26786208839E+01 0.26337014586E+01 0.26036115437E+01
 0.25870644403E+01 0.25834102940E+01 0.25925912598E+01 0.26148671375E+01 0.26504287480E+01
 0.26990419159E+01 0.27598514317E+01 0.28314173007E+01 0.29119675573E+01 0.29997654416E+01
 0.30934387443E+01 0.31921223394E+01 0.32953168802E+01 0.34024536076E+01 0.35122607835E+01
 0.36221254924E+01 0.37276958180E+01 0.36291967655E+01 0.36641229063E+01 0.36820875288E+01
 0.36795968605E+01 0.36541316398E+01 0.36048180358E+01 0.35328243149E+01 0.34413993129E+01
 0.33355590953E+01 0.32214958450E+01 0.31058209900E+01 0.29947714738E+01 0.28935115098E+01
 0.28056501190E+01 0.27330606750E+01 0.26760312020E+01 0.26337014586E+01 0.26046716936E+01
 0.25876207135E+01 0.25817681680E+01 0.25870644403E+01 0.26040758687E+01 0.26336224422E+01
 0.26762910036E+01 0.27319750632E+01 0.27995804964E+01 0.28769879042E+01 0.29612864167E+01
 0.30492102134E+01 0.31376454361E+01 0.32240529508E+01 0.33066768826E+01 0.33844711431E+01
 0.34567609281E+01 0.35227438096E+01 0.35810000089E+01 0.35664650194E+01 0.35604481390E+01
 0.35421057695E+01 0.35107107765E+01 0.34654977603E+01 0.34061843988E+01 0.33334560252E+01
 0.32492668719E+01 0.31568660720E+01 0.30605303399E+01 0.29650578373E+01 0.28751349095E+01
 0.27947189997E+01 0.27265791794E+01 0.26720984997E+01 0.26313784425E+01 0.26036115437E+01
 0.25876207135E+01 0.25824175075E+01 0.25876207135E+01 0.26036115437E+01 0.26313784425E+01
 0.26720984997E+01 0.27265791794E+01 0.27947189997E+01 0.28751349095E+01 0.29650578373E+01
 0.30605303399E+01 0.31568660720E+01 0.32492668719E+01 0.33334560252E+01 0.34061843988E+01
 0.34654977603E+01 0.35107107765E+01 0.35421057695E+01 0.35604481390E+01 0.36291967655E+01
 0.35810000089E+01 0.35227438096E+01 0.34567609281E+01 0.33844711431E+01 0.33066768826E+01
 0.32240529508E+01 0.31376454361E+01 0.30492102134E+01 0.29612864167E+01 0.28769879042E+01
 0.27995804964E+01 0.27319750632E+01 0.26762910036E+01 0.26336224422E+01 0.26040758687E+01
 0.25870644403E+01 0.25817681680E+01 0.25876207135E+01 0.26046716936E+01 0.26337014586E+01
 0.26760312020E+01 0.27330606750E+01 0.28056501190E+01 0.28935115098E+01 0.29947714738E+01
 0.31058209900E+01 0.32214958450E+01 0.33355590953E+01 0.34413993129E+01 0.35328243149E+01
 0.36048180358E+01 0.36541316398E+01 0.36795968605E+01 0.36820875288E+01 0.36641229063E+01
 0.38229346402E+01 0.37276958180E+01 0.36221254924E+01 0.35122607835E+01 0.34024536076E+01
 0.32953168802E+01 0.31921223394E+01 0.30934387443E+01 0.29997654416E+01 0.29119675573E+01
 0.28314173007E+01 0.27598514317E+01 0.26990419159E+01 0.26504287480E+01 0.26148671375E+01
 0.25925912598E+01 0.25834102940E+01 0.25870644403E+01 0.26036115437E+01 0.26337014586E+01
 0.26786208839E+01 0.27400482303E+01 0.28195385682E+01 0.29178460113E+01 0.30342546262E+01
 0.31660993713E+01 0.33086083806E+01 0.34551104859E+01 0.35975672711E+01 0.37273389401E+01
 0.38360826571E+01 0.39166882917E+01 0.39641494808E+01 0.39762381757E+01 0.39538247416E+01
 0.39007096946E+01 0.41595158405E+01 0.40114957902E+01 0.38490953162E+01 0.36829745335E+01
 0.35216291281E+01 0.33707290757E+01 0.32332062480E+01 0.31099015704E+01 0.30004555307E+01
 0.29041360973E+01 0.28204032637E+01 0.27491442391E+01 0.26906295105E+01 0.26453153272E+01
 0.26136431837E+01 0.25959577204E+01 0.25925912598E+01 0.26040758687E+01 0.26313784425E+01
 0.26760312020E+01 0.27400482303E+01 0.28255698198E+01 0.29342545936E+01 0.30665320372E+01
 0.32209025752E+01 0.33934856665E+01 0.35779487601E+01 0.37658303936E+01 0.39471650480E+01
 0.41112826755E+01 0.42476971499E+01 0.43470621185E+01 0.44021869077E+01 0.44090337097E+01
 0.43674970730E+01 0.42816902161E+01 0.46428808027E+01 0.44415041037E+01 0.42159212310E+01
 0.39820242201E+01 0.37538842992E+01 0.35420871026E+01 0.33530615708E+01 0.31893871487E+01
 0.30507692256E+01 0.29352534778E+01 0.28403110084E+01 0.27635917988E+01 0.27033176841E+01
 0.26584034719E+01 0.26284383487E+01 0.26136431837E+01 0.26148671375E+01 0.26336224422E+01
 0.26720984997E+01 0.27330606750E+01 0.28195385682E+01 0.29342545936E+01 0.30788371774E+01
 0.32529776926E+01 0.34537691137E+01 0.36754461256E+01 0.39096153654E+01 0.41459992916E+01
 0.43784315128E+01 0.45999273155E+01 0.47921088757E+01 0.49327379075E+01 0.50046369181E+01
 0.50019938755E+01 0.49315500014E+01 0.48077113148E+01 0.53651627734E+01 0.50350537524E+01
 0.47235156119E+01 0.44181540615E+01 0.41129800552E+01 0.38245954362E+01 0.35655987338E+01
 0.33428927331E+01 0.31582234049E+01 0.30095679484E+01 0.28927914378E+01 0.28031089022E+01
 0.27361380651E+01 0.26885473805E+01 0.26584034719E+01 0.26453153272E+01 0.26504287480E+01
 0.26762910036E+01 0.27265791794E+01 0.28056501190E+01 0.29178460113E+01 0.30665320372E+01
 0.32529776926E+01 0.34753639476E+01 0.37282790357E+01 0.40029632678E+01 0.43000125408E+01
 0.46412687681E+01 0.50243402050E+01 0.54185779945E+01 0.57745070739E+01 0.60377331308E+01
 0.61648520643E+01 0.61369716465E+01 0.59660694221E+01 0.56912239512E+01 0.68736333419E+01
 0.61713943717E+01 0.55359755648E+01 0.50159345999E+01 0.46005482229E+01 0.42293108920E+01
 0.38863603399E+01 0.35863196628E+01 0.33364923361E+01 0.31373782179E+01 0.29846692622E+01
 0.28715667221E+01 0.27908045661E+01 0.27361380651E+01 0.27033176841E+01 0.26906295105E+01
 0.26990419159E+01 0.27319750632E+01 0.27947189997E+01 0.28935115098E+01 0.30342546262E+01
 0.32209025752E+01 0.34537691137E+01 0.37282790357E+01 0.40350482111E+01 0.43920209065E+01
 0.48572898678E+01 0.54526007844E+01 0.61540207572E+01 0.68966010678E+01 0.75860961641E+01
 0.81184195033E+01 0.84043514260E+01 0.83934041187E+01 0.80891185379E+01 0.75498400510E+01
 0.98033833855E+01 0.84946444534E+01 0.72336907173E+01 0.61600907677E+01 0.53415954381E+01
 0.47609771743E+01 0.43216140132E+01 0.39332170420E+01 0.36010124994E+01 0.33325922100E+01
 0.31267135595E+01 0.29762689666E+01 0.28715667221E+01 0.28031089022E+01 0.27635917988E+01
 0.27491442391E+01 0.27598514317E+01 0.27995804964E+01 0.28751349095E+01 0.29947714738E+01
 0.31660993713E+01 0.33934856665E+01 0.36754461256E+01 0.40029632678E+01 0.43920209065E+01
 0.49419145705E+01 0.57232922247E+01 0.67475945767E+01 0.79651712899E+01 0.92691780770E+01
 0.10508492844E+02 0.11512308235E+02 0.12124657637E+02 0.12241286940E+02 0.11837706129E+02
 0.10978447683E+02 0.14645846742E+02 0.12552640927E+02 0.10399373151E+02 0.84357189541E+01
 0.68357679964E+01 0.56702219446E+01 0.48991437510E+01 0.43845955331E+01 0.39620562715E+01
 0.36084682893E+01 0.33312335149E+01 0.31267135595E+01 0.29846692622E+01 0.28927914378E+01
 0.28403110084E+01 0.28204032637E+01 0.28314173007E+01 0.28769879042E+01 0.29650578373E+01
 0.31058209900E+01 0.33086083806E+01 0.35779487601E+01 0.39096153654E+01 0.43000125408E+01
 0.48572898678E+01 0.57232922247E+01 0.69737448495E+01 0.86090027960E+01 0.10551087462E+02
 0.12646023950E+02 0.14676544477E+02 0.16390621558E+02 0.17545869078E+02 0.17961344259E+02
 0.17561843524E+02 0.16399690561E+02 0.21672508452E+02 0.18695316433E+02 0.15454439205E+02
 0.12319170272E+02 0.95876581736E+01 0.74446128899E+01 0.59412065448E+01 0.49960943591E+01
 0.44163947801E+01 0.39717437840E+01 0.36084682893E+01 0.33325922100E+01 0.31373782179E+01
 0.30095679484E+01 0.29352534778E+01 0.29041360973E+01 0.29119675573E+01 0.29612864167E+01
 0.30605303399E+01 0.32214958450E+01 0.34551104859E+01 0.37658303936E+01 0.41459992916E+01
 0.46412687681E+01 0.54526007844E+01 0.67475945767E+01 0.86090027960E+01 0.11026319337E+02
 0.13892192181E+02 0.17002814690E+02 0.20068919731E+02 0.22746375304E+02 0.24689532477E+02
 0.25619020374E+02 0.25385408664E+02 0.24007633159E+02 0.30916537572E+02 0.27037716708E+02
 0.22600176216E+02 0.18095497358E+02 0.13954095763E+02 0.10489439142E+02 0.78670356867E+01
 0.60946245546E+01 0.50312359185E+01 0.44163947801E+01 0.39620562715E+01 0.36010124994E+01
 0.33364923361E+01 0.31582234049E+01 0.30507692256E+01 0.30004555307E+01 0.29997654416E+01
 0.30492102134E+01 0.31568660720E+01 0.33355590953E+01 0.35975672711E+01 0.39471650480E+01
 0.43784315128E+01 0.50243402050E+01 0.61540207572E+01 0.79651712899E+01 0.10551087462E+02
 0.13892192181E+02 0.17852686159E+02 0.22179095219E+02 0.26508144449E+02 0.30396952246E+02
 0.33383323800E+02 0.35069622078E+02 0.35208536728E+02 0.33762634837E+02 0.42184995762E+02
 0.37465157280E+02 0.31808709070E+02 0.25829399870E+02 0.20092858728E+02 0.15047033042E+02
 0.10982958713E+02 0.80179758984E+01 0.60946245546E+01 0.49960943591E+01 0.43845955331E+01
 0.39332170420E+01 0.35863196628E+01 0.33428927331E+01 0.31893871487E+01 0.31099015704E+01
 0.30934387443E+01 0.31376454361E+01 0.32492668719E+01 0.34413993129E+01 0.37273389401E+01
 0.41112826755E+01 0.45999273155E+01 0.54185779945E+01 0.68966010678E+01 0.92691780770E+01
 0.12646023950E+02 0.17002814690E+02 0.22179095219E+02 0.27875564771E+02 0.33657654772E+02
 0.38982333252E+02 0.43262090072E+02 0.45963568375E+02 0.46717502892E+02 0.45404381874E+02
 0.55064114718E+02 0.49643980045E+02 0.42833768132E+02 0.35368222253E+02 0.27950342857E+02
 0.21164652839E+02 0.15430493420E+02 0.10982958713E+02 0.78670356867E+01 0.59412065448E+01
 0.48991437510E+01 0.43216140132E+01 0.38863603399E+01 0.35655987338E+01 0.33530615708E+01
 0.32332062480E+01 0.31921223394E+01 0.32240529508E+01 0.33334560252E+01 0.35328243149E+01
 0.38360826571E+01 0.42476971499E+01 0.47921088757E+01 0.57745070739E+01 0.75860961641E+01
 0.10508492844E+02 0.14676544477E+02 0.20068919731E+02 0.26508144449E+02 0.33657654772E+02
 0.41020349311E+02 0.47958731859E+02 0.53757901968E+02 0.57735567447E+02 0.59376607223E+02
 0.58449781194E+02 0.68900487762E+02 0.63011358701E+02 0.55210045250E+02 0.46347126385E+02
 0.37265212870E+02 0.28688380216E+02 0.21164652839E+02 0.15047033042E+02 0.10489439142E+02
 0.74446128899E+01 0.56702219446E+01 0.47609771743E+01 0.42293108920E+01 0.38245954362E+01
 0.35420871026E+01 0.33707290757E+01 0.32953168802E+01 0.33066768826E+01 0.34061843988E+01
 0.36048180358E+01 0.39166882917E+01 0.43470621185E+01 0.49327379075E+01 0.60377331308E+01
 0.81184195033E+01 0.11512308235E+02 0.16390621558E+02 0.22746375304E+02 0.30396952246E+02
 0.38982333252E+02 0.47958731859E+02 0.56609039302E+02 0.64098955432E+02 0.69592345954E+02
 0.72407913973E+02 0.72170261227E+02 0.82779036823E+02 0.76751423020E+02 0.68235204969E+02
 0.58180832974E+02 0.47568349472E+02 0.37265212870E+02 0.27950342857E+02 0.20092858728E+02
 0.13954095763E+02 0.95876581736E+01 0.68357679964E+01 0.53415954381E+01 0.46005482229E+01
 0.41129800552E+01 0.37538842992E+01 0.35216291281E+01 0.34024536076E+01 0.33844711431E+01
 0.34654977603E+01 0.36541316398E+01 0.39641494808E+01 0.44021869077E+01 0.50046369181E+01
 0.61648520643E+01 0.84043514260E+01 0.12124657637E+02 0.17545869078E+02 0.24689532477E+02
 0.33383323800E+02 0.43262090072E+02 0.53757901968E+02 0.64098955432E+02 0.73352677622E+02
 0.80537870595E+02 0.84796836370E+02 0.85580261701E+02 0.95546976641E+02 0.89799032896E+02
 0.80963201912E+02 0.70056190355E+02 0.58180832974E+02 0.46347126385E+02 0.35368222253E+02
 0.25829399870E+02 0.18095497358E+02 0.12319170272E+02 0.84357189541E+01 0.61600907677E+01
 0.50159345999E+01 0.44181540615E+01 0.39820242201E+01 0.36829745335E+01 0.35122607835E+01
 0.34567609281E+01 0.35107107765E+01 0.36795968605E+01 0.39762381757E+01 0.44090337097E+01
 0.50019938755E+01 0.61369716465E+01 0.83934041187E+01 0.12241286940E+02 0.17961344259E+02
 0.25619020374E+02 0.35069622078E+02 0.45963568375E+02 0.57735567447E+02 0.69592345954E+02
 0.80537870595E+02 0.89472440447E+02 0.95369388549E+02 0.97487573561E+02 0.10592819852E+03
 0.10092032101E+03 0.92255409094E+02 0.80963201912E+02 0.68235204969E+02 0.55210045250E+02
 0.42833768132E+02 0.31808709070E+02 0.22600176216E+02 0.15454439205E+02 0.10399373151E+02
 0.72336907173E+01 0.55359755648E+01 0.47235156119E+01 0.42159212310E+01 0.38490953162E+01
 0.36221254924E+01 0.35227438096E+01 0.35421057695E+01 0.36820875288E+01 0.39538247416E+01
 0.43674970730E+01 0.49315500014E+01 0.59660694221E+01 0.80891185379E+01 0.11837706129E+02
 0.17561843524E+02 0.25385408664E+02 0.35208536728E+02 0.46717502892E+02 0.59376607223E+02
 0.72407913973E+02 0.84796836370E+02 0.95369388549E+02 0.10295992510E+03 0.10663898315E+03
 0.11273180693E+03 0.10888986684E+03 0.10092032101E+03 0.89799032896E+02 0.76751423020E+02
 0.63011358701E+02 0.49643980045E+02 0.37465157280E+02 0.27037716708E+02 0.18695316433E+02
 0.12552640927E+02 0.84946444534E+01 0.61713943717E+01 0.50350537524E+01 0.44415041037E+01
 0.40114957902E+01 0.37276958180E+01 0.35810000089E+01 0.35604481390E+01 0.36641229063E+01
 0.39007096946E+01 0.42816902161E+01 0.48077113148E+01 0.56912239512E+01 0.75498400510E+01
 0.10978447683E+02 0.16399690561E+02 0.24007633159E+02 0.33762634837E+02 0.45404381874E+02
 0.58449781194E+02 0.72170261227E+02 0.85580261701E+02 0.97487573561E+02 0.10663898315E+03
 0.11194697365E+03 0.11273180693E+03 0.11194697365E+03 0.10663898315E+03 0.97487573561E+02
 0.85580261701E+02 0.72170261227E+02 0.58449781194E+02 0.45404381874E+02 0.33762634837E+02
 0.24007633159E+02 0.16399690561E+02 0.10978447683E+02 0.75498400510E+01 0.56912239512E+01
 0.48077113148E+01 0.42816902161E+01 0.39007096946E+01 0.36641229063E+01 0.35604481390E+01
 0.35810000089E+01 0.37276958180E+01 0.40114957902E+01 0.44415041037E+01 0.50350537524E+01
 0.61713943717E+01 0.84946444534E+01 0.12552640927E+02 0.18695316433E+02 0.27037716708E+02
 0.37465157280E+02 0.49643980045E+02 0.63011358701E+02 0.76751423020E+02 0.89799032896E+02
 0.10092032101E+03 0.10888986684E+03 0.11194697365E+03 0.11273180690E+03 0.10888986677E+03
 0.10092032091E+03 0.89799032774E+02 0.76751422880E+02 0.63011358552E+02 0.49643979899E+02
 0.37465157148E+02 0.27037716598E+02 0.18695316349E+02 0.12552640868E+02 0.84946444167E+01
 0.61713943512E+01 0.50350537422E+01 0.44415040991E+01 0.40114957882E+01 0.37276958174E+01
 0.35810000090E+01 0.35604481394E+01 0.36641229069E+01 0.39007096959E+01 0.42816902207E+01
 0.48077113272E+01 0.56912239780E+01 0.75498400993E+01 0.10978447758E+02 0.16399690666E+02
 0.24007633290E+02 0.33762634987E+02 0.45404382030E+02 0.58449781344E+02 0.72170261358E+02
 0.85580261805E+02 0.97487573632E+02 0.10663898318E+03 0.10663898315E+03 0.10888986677E+03
 0.10663898309E+03 0.10018149264E+03 0.90327674576E+02 0.78208384999E+02 0.65037832281E+02
 0.51916028828E+02 0.39719005341E+02 0.29073316725E+02 0.20373586782E+02 0.13797795232E+02
 0.93018032267E+01 0.66099168797E+01 0.52365409823E+01 0.45636092305E+01 0.40970045258E+01
 0.37738359647E+01 0.35884308020E+01 0.35284926771E+01 0.35884308030E+01 0.37738359664E+01
 0.40970045293E+01 0.45636092396E+01 0.52365410047E+01 0.66099169264E+01 0.93018033096E+01
 0.13797795360E+02 0.20373586959E+02 0.29073316945E+02 0.39719005589E+02 0.51916029086E+02
 0.65037832527E+02 0.78208385214E+02 0.90327674747E+02 0.10018149276E+03 0.97487573561E+02
 0.10092032091E+03 0.10018149264E+03 0.95369388483E+02 0.87100101777E+02 0.76356860719E+02
 0.64273922477E+02 0.51933704002E+02 0.40234792073E+02 0.29843116519E+02 0.21197082754E+02
 0.14523196595E+02 0.98360302632E+01 0.69289472710E+01 0.53853110398E+01 0.46379728810E+01
 0.41491081700E+01 0.37973515440E+01 0.35806385292E+01 0.34861973216E+01 0.35052145712E+01
 0.36396673905E+01 0.39009682209E+01 0.43004035111E+01 0.48413438925E+01 0.57887689747E+01
 0.77354705274E+01 0.11210968759E+02 0.16567795139E+02 0.23938800790E+02 0.33235548858E+02
 0.44156782418E+02 0.56182965351E+02 0.68561476003E+02 0.80316821206E+02 0.90327674708E+02
 0.85580261701E+02 0.89799032774E+02 0.90327674576E+02 0.87100101777E+02 0.80537870542E+02
 0.71446389160E+02 0.60832192448E+02 0.49709757475E+02 0.38958195379E+02 0.29252409051E+02
 0.21052907466E+02 0.14617242715E+02 0.10003670667E+02 0.70644879797E+01 0.54513267781E+01
 0.46596550053E+01 0.41620926407E+01 0.37941410086E+01 0.35556500709E+01 0.34340126253E+01
 0.34178513537E+01 0.35054174704E+01 0.37057919026E+01 0.40329315435E+01 0.44925826182E+01
 0.51435367059E+01 0.64346708364E+01 0.89111403231E+01 0.12988059863E+02 0.18885895375E+02
 0.26611140052E+02 0.35960240514E+02 0.46521400205E+02 0.57667571578E+02 0.68561475962E+02
 0.78208385137E+02 0.72170261227E+02 0.76751422880E+02 0.78208384999E+02 0.76356860719E+02
 0.71446389160E+02 0.64098955412E+02 0.55165059295E+02 0.45551805916E+02 0.36079920304E+02
 0.27401614453E+02 0.19975705627E+02 0.14071934577E+02 0.97759110037E+01 0.69857999848E+01
 0.54151933805E+01 0.46261311670E+01 0.41335641026E+01 0.37620367050E+01 0.35122358311E+01
 0.33720932307E+01 0.33284370838E+01 0.33760948002E+01 0.35208959595E+01 0.37767298136E+01
 0.41564833623E+01 0.46604176495E+01 0.54681180736E+01 0.70765225366E+01 0.99384691754E+01
 0.14351777884E+02 0.20418866770E+02 0.28038280015E+02 0.36907099719E+02 0.46521400164E+02
 0.56182965271E+02 0.65037832415E+02 0.58449781194E+02 0.63011358552E+02 0.65037832281E+02
 0.64273922477E+02 0.60832192448E+02 0.55165059295E+02 0.47958731885E+02 0.39989076006E+02
 0.31988658368E+02 0.24559258681E+02 0.18135559559E+02 0.12981460423E+02 0.91941933466E+01
 0.67039572234E+01 0.52766186232E+01 0.45386563784E+01 0.40647409282E+01 0.37013197712E+01
 0.34504538292E+01 0.33007721531E+01 0.32381089989E+01 0.32545106767E+01 0.33522655014E+01
 0.35431653094E+01 0.38429074641E+01 0.42605171317E+01 0.48077870314E+01 0.57677577440E+01
 0.75928907564E+01 0.10636564995E+02 0.15089545345E+02 0.20953950212E+02 0.28038279979E+02
 0.35960240438E+02 0.44156782306E+02 0.51916028949E+02 0.45404381874E+02 0.49643979899E+02
 0.51916028828E+02 0.51933704002E+02 0.49709757475E+02 0.45551805916E+02 0.39989076006E+02
 0.33657654837E+02 0.27183950226E+02 0.21099037367E+02 0.15795441120E+02 0.11516262888E+02
 0.83570795741E+01 0.62675624593E+01 0.50551086003E+01 0.44045411277E+01 0.39601631643E+01
 0.36148112665E+01 0.33719760239E+01 0.32210284982E+01 0.31475884120E+01 0.31417878869E+01
 0.32026532529E+01 0.33387707641E+01 0.35652885718E+01 0.38969903382E+01 0.43377471544E+01
 0.49249984109E+01 0.59804967798E+01 0.78801402326E+01 0.10883441624E+02 0.15089545320E+02
 0.20418866711E+02 0.26611139955E+02 0.33235548729E+02 0.39719005439E+02 0.33762634837E+02
 0.37465157148E+02 0.39719005341E+02 0.40234792073E+02 0.38958195379E+02 0.36079920304E+02
 0.31988658368E+02 0.27183950226E+02 0.22179095297E+02 0.17422700809E+02 0.13253099081E+02
 0.98820763062E+01 0.73939511904E+01 0.57480262130E+01 0.47833518852E+01 0.42352163575E+01
 0.38269904118E+01 0.35075591813E+01 0.32801125303E+01 0.31347946442E+01 0.30577328022E+01
 0.30381108487E+01 0.30723815588E+01 0.31656782796E+01 0.33305454903E+01 0.35828233765E+01
 0.39345541759E+01 0.43847135744E+01 0.49911699612E+01 0.60574805169E+01 0.78801402200E+01
 0.10636564959E+02 0.14351777817E+02 0.18885895275E+02 0.23938800659E+02 0.29073316796E+02
 0.24007633159E+02 0.27037716598E+02 0.29073316725E+02 0.29843116519E+02 0.29252409051E+02
 0.27401614453E+02 0.24559258681E+02 0.21099037367E+02 0.17422700809E+02 0.13892192239E+02