 vasp.5.4.1 24Jun15 (build Jul 19 2016 16:50:41) complex                        
  
 executed on           IFC91_ompi date 2019.10.17  13:12:31
 running on    4 total cores
 distrk:  each k-point on    4 cores,    1 groups
 distr:  one band on NCORES_PER_BAND=   1 cores,    4 groups


--------------------------------------------------------------------------------------------------------


 INCAR:
 POTCAR:    PAW_PBE Fe 06Sep2000                  
 POTCAR:    PAW_PBE Fe 06Sep2000                  
   VRHFIN =Fe:  d7 s1                                                           
   LEXCH  = PE                                                                  
   EATOM  =   594.3153 eV,   43.6809 Ry                                         
                                                                                
   TITEL  = PAW_PBE Fe 06Sep2000                                                
   LULTRA =        F    use ultrasoft PP ?                                      
   IUNSCR =        1    unscreen: 0-lin 1-nonlin 2-no                           
   RPACOR =    2.000    partial core radius                                     
   POMASS =   55.847; ZVAL   =    8.000    mass and valenz                      
   RCORE  =    2.300    outmost cutoff radius                                   
   RWIGS  =    2.460; RWIGS  =    1.302    wigner-seitz radius (au A)           
   ENMAX  =  267.882; ENMIN  =  200.911 eV                                      
   RCLOC  =    1.701    cutoff for local pot                                    
   LCOR   =        T    correct aug charges                                     
   LPAW   =        T    paw PP                                                  
   EAUG   =  511.368                                                            
   DEXC   =    0.000                                                            
   RMAX   =    2.356    core radius for proj-oper                               
   RAUG   =    1.300    factor for augmentation sphere                          
   RDEP   =    2.442    radius for radial grids                                 
   RDEPT  =    1.890    core radius for aug-charge                              
                                                                                
   Atomic configuration                                                         
    9 entries                                                                   
     n  l   j            E        occ.                                          
     1  0  0.50     -6993.8440   2.0000                                         
     2  0  0.50      -814.6047   2.0000                                         
     2  1  1.50      -693.3689   6.0000                                         
     3  0  0.50       -89.4732   2.0000                                         
     3  1  1.50       -55.6373   6.0000                                         
     3  2  2.50        -3.8151   7.0000                                         
     4  0  0.50        -4.2551   1.0000                                         
     4  1  1.50        -3.4015   0.0000                                         
     4  3  2.50        -1.3606   0.0000                                         
   Description                                                                  
     l       E           TYP  RCUT    TYP  RCUT                                 
     2     -3.8151135     23  2.300                                             
     2     -5.1756961     23  2.300                                             
     0     -4.2550963     23  2.300                                             
     0      7.2035603     23  2.300                                             
     1     -2.7211652     23  2.300                                             
     1     18.4316424     23  2.300                                             
  local pseudopotential read in
  partial core-charges read in
  partial kinetic energy density read in
  atomic valenz-charges read in
  non local Contribution for L=           2  read in
    real space projection operators read in
  non local Contribution for L=           2  read in
    real space projection operators read in
  non local Contribution for L=           0  read in
    real space projection operators read in
  non local Contribution for L=           0  read in
    real space projection operators read in
  non local Contribution for L=           1  read in
    real space projection operators read in
  non local Contribution for L=           1  read in
    real space projection operators read in
    PAW grid and wavefunctions read in
 
   number of l-projection  operators is LMAX  =           6
   number of lm-projection operators is LMMAX =          18
 
  PAW_PBE Fe 06Sep2000                  :
 energy of atom  1       EATOM= -594.3153
 kinetic energy error for atom=    0.0088 (will be added to EATOM!!)
 
 
 POSCAR: Fe BCC                                  
  positions in direct lattice
  velocities in cartesian coordinates
  No initial velocities read in
 exchange correlation table for  LEXCH =        8
   RHO(1)=    0.500       N(1)  =     2000
   RHO(2)=  100.500       N(2)  =     4000
 


--------------------------------------------------------------------------------------------------------


 ion  position               nearest neighbor table
   1  0.000  0.000  0.000-
 
  LATTYP: Found a body centered cubic cell.
 ALAT       =     3.0000000000
  
  Lattice vectors:
  
 A1 = (  -1.5000000000,   1.5000000000,   1.5000000000)
 A2 = (   1.5000000000,  -1.5000000000,   1.5000000000)
 A3 = (   1.5000000000,   1.5000000000,  -1.5000000000)


Analysis of symmetry for initial positions (statically):
=====================================================================
 Subroutine PRICEL returns:
 Original cell was already a primitive cell.
 

 Routine SETGRP: Setting up the symmetry group for a 
 body centered cubic supercell.


 Subroutine GETGRP returns: Found 48 space group operations
 (whereof 48 operations were pure point group operations)
 out of a pool of 48 trial point group operations.


The static configuration has the point symmetry O_h .


Analysis of symmetry for dynamics (positions and initial velocities):
=====================================================================
 Subroutine PRICEL returns:
 Original cell was already a primitive cell.
 

 Routine SETGRP: Setting up the symmetry group for a 
 body centered cubic supercell.


 Subroutine GETGRP returns: Found 48 space group operations
 (whereof 48 operations were pure point group operations)
 out of a pool of 48 trial point group operations.


The dynamic configuration has the point symmetry O_h .


Analysis of structural, dynamic, and magnetic symmetry:
=====================================================================
 Subroutine PRICEL returns:
 Original cell was already a primitive cell.
 

 Routine SETGRP: Setting up the symmetry group for a 
 body centered cubic supercell.


 Subroutine GETGRP returns: Found 48 space group operations
 (whereof 48 operations were pure point group operations)
 out of a pool of 48 trial point group operations.


The magnetic configuration has the point symmetry O_h .


 Subroutine INISYM returns: Found 48 space group operations
 (whereof 48 operations are pure point group operations),
 and found     1 'primitive' translations

 
 
 KPOINTS: K-Points                                

Automatic generation of k-mesh.
Space group operators:
 irot       det(A)        alpha          n_x          n_y          n_z        tau_x        tau_y        tau_z
    1     1.000000     0.000000     1.000000     0.000000     0.000000     0.000000     0.000000     0.000000
    2    -1.000000     0.000000     1.000000     0.000000     0.000000     0.000000     0.000000     0.000000
    3     1.000000   120.000000    -0.577350    -0.577350    -0.577350     0.000000     0.000000     0.000000
    4    -1.000000   120.000000    -0.577350    -0.577350    -0.577350     0.000000     0.000000     0.000000
    5     1.000000   120.000000     0.577350     0.577350     0.577350     0.000000     0.000000     0.000000
    6    -1.000000   120.000000     0.577350     0.577350     0.577350     0.000000     0.000000     0.000000
    7     1.000000    90.000000     0.000000     0.000000    -1.000000     0.000000     0.000000     0.000000
    8    -1.000000    90.000000     0.000000     0.000000    -1.000000     0.000000     0.000000     0.000000
    9     1.000000   180.000000     0.000000     0.707107     0.707107     0.000000     0.000000     0.000000
   10    -1.000000   180.000000     0.000000     0.707107     0.707107     0.000000     0.000000     0.000000
   11     1.000000    90.000000     0.000000     1.000000     0.000000     0.000000     0.000000     0.000000
   12    -1.000000    90.000000     0.000000     1.000000     0.000000     0.000000     0.000000     0.000000
   13     1.000000   180.000000     0.000000     0.000000     1.000000     0.000000     0.000000     0.000000
   14    -1.000000   180.000000     0.000000     0.000000     1.000000     0.000000     0.000000     0.000000
   15     1.000000   120.000000    -0.577350     0.577350     0.577350     0.000000     0.000000     0.000000
   16    -1.000000   120.000000    -0.577350     0.577350     0.577350     0.000000     0.000000     0.000000
   17     1.000000   120.000000    -0.577350     0.577350    -0.577350     0.000000     0.000000     0.000000
   18    -1.000000   120.000000    -0.577350     0.577350    -0.577350     0.000000     0.000000     0.000000
   19     1.000000    90.000000     0.000000     0.000000     1.000000     0.000000     0.000000     0.000000
   20    -1.000000    90.000000     0.000000     0.000000     1.000000     0.000000     0.000000     0.000000
   21     1.000000    90.000000    -1.000000     0.000000     0.000000     0.000000     0.000000     0.000000
   22    -1.000000    90.000000    -1.000000     0.000000     0.000000     0.000000     0.000000     0.000000
   23     1.000000   180.000000     0.707107     0.000000     0.707107     0.000000     0.000000     0.000000
   24    -1.000000   180.000000     0.707107     0.000000     0.707107     0.000000     0.000000     0.000000
   25     1.000000   120.000000     0.577350    -0.577350     0.577350     0.000000     0.000000     0.000000
   26    -1.000000   120.000000     0.577350    -0.577350     0.577350     0.000000     0.000000     0.000000
   27     1.000000   120.000000    -0.577350    -0.577350     0.577350     0.000000     0.000000     0.000000
   28    -1.000000   120.000000    -0.577350    -0.577350     0.577350     0.000000     0.000000     0.000000
   29     1.000000   180.000000     1.000000     0.000000     0.000000     0.000000     0.000000     0.000000
   30    -1.000000   180.000000     1.000000     0.000000     0.000000     0.000000     0.000000     0.000000
   31     1.000000    90.000000     0.000000    -1.000000     0.000000     0.000000     0.000000     0.000000
   32    -1.000000    90.000000     0.000000    -1.000000     0.000000     0.000000     0.000000     0.000000
   33     1.000000   180.000000     0.707107     0.707107     0.000000     0.000000     0.000000     0.000000
   34    -1.000000   180.000000     0.707107     0.707107     0.000000     0.000000     0.000000     0.000000
   35     1.000000    90.000000     1.000000     0.000000     0.000000     0.000000     0.000000     0.000000
   36    -1.000000    90.000000     1.000000     0.000000     0.000000     0.000000     0.000000     0.000000
   37     1.000000   120.000000     0.577350    -0.577350    -0.577350     0.000000     0.000000     0.000000
   38    -1.000000   120.000000     0.577350    -0.577350    -0.577350     0.000000     0.000000     0.000000
   39     1.000000   180.000000     0.000000     1.000000     0.000000     0.000000     0.000000     0.000000
   40    -1.000000   180.000000     0.000000     1.000000     0.000000     0.000000     0.000000     0.000000
   41     1.000000   120.000000     0.577350     0.577350    -0.577350     0.000000     0.000000     0.000000
   42    -1.000000   120.000000     0.577350     0.577350    -0.577350     0.000000     0.000000     0.000000
   43     1.000000   180.000000     0.000000    -0.707107     0.707107     0.000000     0.000000     0.000000
   44    -1.000000   180.000000     0.000000    -0.707107     0.707107     0.000000     0.000000     0.000000
   45     1.000000   180.000000     0.707107    -0.707107     0.000000     0.000000     0.000000     0.000000
   46    -1.000000   180.000000     0.707107    -0.707107     0.000000     0.000000     0.000000     0.000000
   47     1.000000   180.000000     0.707107     0.000000    -0.707107     0.000000     0.000000     0.000000
   48    -1.000000   180.000000     0.707107     0.000000    -0.707107     0.000000     0.000000     0.000000
 
 Subroutine IBZKPT returns following result:
 ===========================================
 
 Found     26 irreducible k-points:
 
 Following reciprocal coordinates:
            Coordinates               Weight
  0.062500  0.062500  0.062500      8.000000
  0.187500  0.062500  0.062500     24.000000
  0.312500  0.062500  0.062500     24.000000
  0.437500  0.062500  0.062500     12.000000
 -0.062500  0.062500  0.062500      6.000000
  0.187500  0.187500  0.062500     24.000000
  0.312500  0.187500  0.062500     48.000000
 -0.187500  0.187500  0.062500     24.000000
  0.312500  0.312500  0.062500      8.000000
 -0.312500  0.312500  0.062500     24.000000
 -0.187500  0.312500  0.062500     24.000000
 -0.437500  0.437500  0.062500     24.000000
 -0.312500  0.437500  0.062500     48.000000
 -0.437500 -0.437500  0.062500     24.000000
 -0.312500 -0.437500  0.062500     24.000000
  0.187500  0.187500  0.187500      8.000000
  0.312500  0.187500  0.187500     12.000000
 -0.187500  0.187500  0.187500      6.000000
 -0.312500  0.312500  0.187500     24.000000
 -0.437500  0.437500  0.187500     24.000000
 -0.312500  0.437500  0.187500     24.000000
 -0.437500 -0.437500  0.187500     24.000000
 -0.312500  0.312500  0.312500      6.000000
 -0.437500  0.437500  0.312500     24.000000
 -0.437500 -0.437500  0.312500      8.000000
 -0.437500  0.437500  0.437500      6.000000
 
 Following cartesian coordinates:
            Coordinates               Weight
  0.125000  0.125000  0.125000      8.000000
  0.125000  0.250000  0.250000     24.000000
  0.125000  0.375000  0.375000     24.000000
  0.125000  0.500000  0.500000     12.000000
  0.125000  0.000000  0.000000      6.000000
  0.250000  0.250000  0.375000     24.000000
  0.250000  0.375000  0.500000     48.000000
  0.250000 -0.125000  0.000000     24.000000
  0.375000  0.375000  0.625000      8.000000
  0.375000 -0.250000  0.000000     24.000000
  0.375000 -0.125000  0.125000     24.000000
  0.500000 -0.375000  0.000000     24.000000
  0.500000 -0.250000  0.125000     48.000000
 -0.375000 -0.375000 -0.875000     24.000000
 -0.375000 -0.250000 -0.750000     24.000000
  0.375000  0.375000  0.375000      8.000000
  0.375000  0.500000  0.500000     12.000000
  0.375000  0.000000  0.000000      6.000000
  0.500000 -0.125000  0.000000     24.000000
  0.625000 -0.250000  0.000000     24.000000
  0.625000 -0.125000  0.125000     24.000000
 -0.250000 -0.250000 -0.875000     24.000000
  0.625000  0.000000  0.000000      6.000000
  0.750000 -0.125000  0.000000     24.000000
 -0.125000 -0.125000 -0.875000      8.000000
  0.875000  0.000000  0.000000      6.000000
 
 TETIRR: Found    534 inequivalent tetrahedra from     3072


--------------------------------------------------------------------------------------------------------




 Dimension of arrays:
   k-points           NKPTS =     26   k-points in BZ     NKDIM =     26   number of bands    NBANDS=     12
   number of dos      NEDOS =    301   number of ions     NIONS =      1
   non local maximal  LDIM  =      6   non local SUM 2l+1 LMDIM =     18
   total plane-waves  NPLWV =   5832
   max r-space proj   IRMAX =      1   max aug-charges    IRDMAX=  15586
   dimension x,y,z NGX =    18 NGY =   18 NGZ =   18
   dimension x,y,z NGXF=    36 NGYF=   36 NGZF=   36
   support grid    NGXF=    36 NGYF=   36 NGZF=   36
   ions per type =               1
 NGX,Y,Z   is equivalent  to a cutoff of  11.52, 11.52, 11.52 a.u.
 NGXF,Y,Z  is equivalent  to a cutoff of  23.04, 23.04, 23.04 a.u.


 I would recommend the setting:
   dimension x,y,z NGX =    17 NGY =   17 NGZ =   17
 SYSTEM =  Fe FCC                                  
 POSCAR =  Fe BCC                                  

 Startparameter for this run:
   NWRITE =      2    write-flag & timer
   PREC   = accura    normal or accurate (medium, high low for compatibility)
   ISTART =      0    job   : 0-new  1-cont  2-samecut
   ICHARG =      2    charge: 1-file 2-atom 10-const
   ISPIN  =      2    spin polarized calculation?
   LNONCOLLINEAR =      F non collinear calculations
   LSORBIT =      F    spin-orbit coupling
   INIWAV =      1    electr: 0-lowe 1-rand  2-diag
   LASPH  =      F    aspherical Exc in radial PAW
   METAGGA=      F    non-selfconsistent MetaGGA calc.

 Electronic Relaxation 1
   ENCUT  =  400.0 eV  29.40 Ry    5.42 a.u.   4.24  4.24  4.24*2*pi/ulx,y,z
   ENINI  =  400.0     initial cutoff
   ENAUG  =  511.4 eV  augmentation charge cutoff
   NELM   =     60;   NELMIN=  2; NELMDL= -5     # of ELM steps 
   EDIFF  = 0.1E-05   stopping-criterion for ELM
   LREAL  =      F    real-space projection
   NLSPLINE    = F    spline interpolate recip. space projectors
   LCOMPAT=      F    compatible to vasp.4.4
   GGA_COMPAT  = T    GGA compatible to vasp.4.4-vasp.4.6
   LMAXPAW     = -100 max onsite density
   LMAXMIX     =    2 max onsite mixed and CHGCAR
   VOSKOWN=      0    Vosko Wilk Nusair interpolation
   ROPT   =    0.00000
 Ionic relaxation
   EDIFFG = 0.1E-04   stopping-criterion for IOM
   NSW    =      0    number of steps for IOM
   NBLOCK =      1;   KBLOCK =      1    inner block; outer block 
   IBRION =     -1    ionic relax: 0-MD 1-quasi-New 2-CG
   NFREE  =      0    steps in history (QN), initial steepest desc. (CG)
   ISIF   =      2    stress and relaxation
   IWAVPR =     10    prediction:  0-non 1-charg 2-wave 3-comb
   ISYM   =      2    0-nonsym 1-usesym 2-fastsym
   LCORR  =      T    Harris-Foulkes like correction to forces

   POTIM  = 0.5000    time-step for ionic-motion
   TEIN   =    0.0    initial temperature
   TEBEG  =    0.0;   TEEND  =   0.0 temperature during run
   SMASS  =  -3.00    Nose mass-parameter (am)
   estimated Nose-frequenzy (Omega)   =  0.10E-29 period in steps =****** mass=  -0.154E-27a.u.
   SCALEE = 1.0000    scale energy and forces
   NPACO  =    256;   APACO  = 16.0  distance and # of slots for P.C.
   PSTRESS=    0.0 pullay stress

  Mass of Ions in am
   POMASS =  55.85
  Ionic Valenz
   ZVAL   =   8.00
  Atomic Wigner-Seitz radii
   RWIGS  =  -1.00
  virtual crystal weights 
   VCA    =   1.00
   NELECT =       8.0000    total number of electrons
   NUPDOWN=      -1.0000    fix difference up-down

 DOS related values:
   EMIN   =  10.00;   EMAX   =-10.00  energy-range for DOS
   EFERMI =   0.00
   ISMEAR =    -5;   SIGMA  =   0.20  broadening in eV -4-tet -1-fermi 0-gaus

 Electronic relaxation 2 (details)
   IALGO  =     38    algorithm
   LDIAG  =      T    sub-space diagonalisation (order eigenvalues)
   LSUBROT=      F    optimize rotation matrix (better conditioning)
   TURBO    =      0    0=normal 1=particle mesh
   IRESTART =      0    0=no restart 2=restart with 2 vectors
   NREBOOT  =      0    no. of reboots
   NMIN     =      0    reboot dimension
   EREF     =   0.00    reference energy to select bands
   IMIX   =      4    mixing-type and parameters
     AMIX     =   0.40;   BMIX     =  1.00
     AMIX_MAG =   1.60;   BMIX_MAG =  1.00
     AMIN     =   0.10
     WC   =   100.;   INIMIX=   1;  MIXPRE=   1;  MAXMIX= -45

 Intra band minimization:
   WEIMIN = 0.0000     energy-eigenvalue tresh-hold
   EBREAK =  0.21E-07  absolut break condition
   DEPER  =   0.30     relativ break condition  

   TIME   =   0.40     timestep for ELM

  volume/ion in A,a.u.               =      13.50        91.10
  Fermi-wavevector in a.u.,A,eV,Ry     =   1.375077  2.598518 25.726382  1.890836
  Thomas-Fermi vector in A             =   2.500445
 
 Write flags
   LWAVE  =      T    write WAVECAR
   LCHARG =      T    write CHGCAR
   LVTOT  =      F    write LOCPOT, total local potential
   LVHAR  =      F    write LOCPOT, Hartree potential only
   LELF   =      F    write electronic localiz. function (ELF)
   LORBIT =     11    0 simple, 1 ext, 2 COOP (PROOUT)


 Dipole corrections
   LMONO  =      F    monopole corrections only (constant potential shift)
   LDIPOL =      F    correct potential (dipole corrections)
   IDIPOL =      0    1-x, 2-y, 3-z, 4-all directions 
   EPSILON=  1.0000000 bulk dielectric constant

 Exchange correlation treatment:
   GGA     =    --    GGA type
   LEXCH   =     8    internal setting for exchange type
   VOSKOWN=      0    Vosko Wilk Nusair interpolation
   LHFCALC =     F    Hartree Fock is set to
   LHFONE  =     F    Hartree Fock one center treatment
   AEXX    =    0.0000 exact exchange contribution

 Linear response parameters
   LEPSILON=     F    determine dielectric tensor
   LRPA    =     F    only Hartree local field effects (RPA)
   LNABLA  =     F    use nabla operator in PAW spheres
   LVEL    =     F    velocity operator in full k-point grid
   LINTERFAST=   F  fast interpolation
   KINTER  =     0    interpolate to denser k-point grid
   CSHIFT  =0.1000    complex shift for real part using Kramers Kronig
   OMEGAMAX=  -1.0    maximum frequency
   DEG_THRESHOLD= 0.2000000E-02 threshold for treating states as degnerate
   RTIME   =    0.100 relaxation time in fs

 Orbital magnetization related:
   ORBITALMAG=     F  switch on orbital magnetization
   LCHIMAG   =     F  perturbation theory with respect to B field
   DQ        =  0.001000  dq finite difference perturbation B field



--------------------------------------------------------------------------------------------------------


 Static calculation
 charge density and potential will be updated during run
 spin polarized calculation
 Variant of blocked Davidson
 Davidson routine will perform the subspace rotation
 perform sub-space diagonalisation
    after iterative eigenvector-optimisation
 modified Broyden-mixing scheme, WC =      100.0
 initial mixing is a Kerker type mixing with AMIX =  0.4000 and BMIX =      1.0000
 Hartree-type preconditioning will be used
 using additional bands            8
 reciprocal scheme for non local part
 use partial core corrections
 calculate Harris-corrections to forces 
   (improved forces if not selfconsistent)
 use gradient corrections 
 use of overlap-Matrix (Vanderbilt PP)
 Fermi weights with tetrahedron method with Bloechl corrections


--------------------------------------------------------------------------------------------------------


  energy-cutoff  :      400.00
  volume of cell :       13.50
      direct lattice vectors                 reciprocal lattice vectors
    -1.500000000  1.500000000  1.500000000     0.000000000  0.333333333  0.333333333
     1.500000000 -1.500000000  1.500000000     0.333333333  0.000000000  0.333333333
     1.500000000  1.500000000 -1.500000000     0.333333333  0.333333333  0.000000000

  length of vectors
     2.598076211  2.598076211  2.598076211     0.471404521  0.471404521  0.471404521


 
 k-points in units of 2pi/SCALE and weight: K-Points                                
   0.12500000  0.12500000  0.12500000       0.016
   0.12500000  0.25000000  0.25000000       0.047
   0.12500000  0.37500000  0.37500000       0.047
   0.12500000  0.50000000  0.50000000       0.023
   0.12500000  0.00000000  0.00000000       0.012
   0.25000000  0.25000000  0.37500000       0.047
   0.25000000  0.37500000  0.50000000       0.094
   0.25000000 -0.12500000  0.00000000       0.047
   0.37500000  0.37500000  0.62500000       0.016
   0.37500000 -0.25000000  0.00000000       0.047
   0.37500000 -0.12500000  0.12500000       0.047
   0.50000000 -0.37500000  0.00000000       0.047
   0.50000000 -0.25000000  0.12500000       0.094
  -0.37500000 -0.37500000 -0.87500000       0.047
  -0.37500000 -0.25000000 -0.75000000       0.047
   0.37500000  0.37500000  0.37500000       0.016
   0.37500000  0.50000000  0.50000000       0.023
   0.37500000  0.00000000  0.00000000       0.012
   0.50000000 -0.12500000  0.00000000       0.047
   0.62500000 -0.25000000  0.00000000       0.047
   0.62500000 -0.12500000  0.12500000       0.047
  -0.25000000 -0.25000000 -0.87500000       0.047
   0.62500000  0.00000000  0.00000000       0.012
   0.75000000 -0.12500000  0.00000000       0.047
  -0.12500000 -0.12500000 -0.87500000       0.016
   0.87500000  0.00000000  0.00000000       0.012
 
 k-points in reciprocal lattice and weights: K-Points                                
   0.06250000  0.06250000  0.06250000       0.016
   0.18750000  0.06250000  0.06250000       0.047
   0.31250000  0.06250000  0.06250000       0.047
   0.43750000  0.06250000  0.06250000       0.023
  -0.06250000  0.06250000  0.06250000       0.012
   0.18750000  0.18750000  0.06250000       0.047
   0.31250000  0.18750000  0.06250000       0.094
  -0.18750000  0.18750000  0.06250000       0.047
   0.31250000  0.31250000  0.06250000       0.016
  -0.31250000  0.31250000  0.06250000       0.047
  -0.18750000  0.31250000  0.06250000       0.047
  -0.43750000  0.43750000  0.06250000       0.047
  -0.31250000  0.43750000  0.06250000       0.094
  -0.43750000 -0.43750000  0.06250000       0.047
  -0.31250000 -0.43750000  0.06250000       0.047
   0.18750000  0.18750000  0.18750000       0.016
   0.31250000  0.18750000  0.18750000       0.023
  -0.18750000  0.18750000  0.18750000       0.012
  -0.31250000  0.31250000  0.18750000       0.047
  -0.43750000  0.43750000  0.18750000       0.047
  -0.31250000  0.43750000  0.18750000       0.047
  -0.43750000 -0.43750000  0.18750000       0.047
  -0.31250000  0.31250000  0.31250000       0.012
  -0.43750000  0.43750000  0.31250000       0.047
  -0.43750000 -0.43750000  0.31250000       0.016
  -0.43750000  0.43750000  0.43750000       0.012
 
 position of ions in fractional coordinates (direct lattice) 
   0.00000000  0.00000000  0.00000000
 
 position of ions in cartesian coordinates  (Angst):
   0.00000000  0.00000000  0.00000000
 


--------------------------------------------------------------------------------------------------------


 k-point  1 :   0.0625 0.0625 0.0625  plane waves:     231
 k-point  2 :   0.1875 0.0625 0.0625  plane waves:     249
 k-point  3 :   0.3125 0.0625 0.0625  plane waves:     251
 k-point  4 :   0.4375 0.0625 0.0625  plane waves:     250
 k-point  5 :  -0.0625 0.0625 0.0625  plane waves:     237
 k-point  6 :   0.1875 0.1875 0.0625  plane waves:     248
 k-point  7 :   0.3125 0.1875 0.0625  plane waves:     246
 k-point  8 :  -0.1875 0.1875 0.0625  plane waves:     241
 k-point  9 :   0.3125 0.3125 0.0625  plane waves:     246
 k-point 10 :  -0.3125 0.3125 0.0625  plane waves:     249
 k-point 11 :  -0.1875 0.3125 0.0625  plane waves:     244
 k-point 12 :  -0.4375 0.4375 0.0625  plane waves:     251
 k-point 13 :  -0.3125 0.4375 0.0625  plane waves:     245
 k-point 14 :  -0.4375-0.4375 0.0625  plane waves:     241
 k-point 15 :  -0.3125-0.4375 0.0625  plane waves:     245
 k-point 16 :   0.1875 0.1875 0.1875  plane waves:     246
 k-point 17 :   0.3125 0.1875 0.1875  plane waves:     248
 k-point 18 :  -0.1875 0.1875 0.1875  plane waves:     249
 k-point 19 :  -0.3125 0.3125 0.1875  plane waves:     242
 k-point 20 :  -0.4375 0.4375 0.1875  plane waves:     245
 k-point 21 :  -0.3125 0.4375 0.1875  plane waves:     250
 k-point 22 :  -0.4375-0.4375 0.1875  plane waves:     246
 k-point 23 :  -0.3125 0.3125 0.3125  plane waves:     241
 k-point 24 :  -0.4375 0.4375 0.3125  plane waves:     245
 k-point 25 :  -0.4375-0.4375 0.3125  plane waves:     245
 k-point 26 :  -0.4375 0.4375 0.4375  plane waves:     237

 maximum and minimum number of plane-waves per node :       251      231

 maximum number of plane-waves:       251
 maximum index in each direction: 
   IXMAX=    4   IYMAX=    4   IZMAX=    4
   IXMIN=   -4   IYMIN=   -4   IZMIN=   -4

 NGX is ok and might be reduce to  18
 NGY is ok and might be reduce to  18
 NGZ is ok and might be reduce to  18

 serial   3D FFT for wavefunctions
 parallel 3D FFT for charge:
    minimum data exchange during FFTs selected (reduces bandwidth)


 total amount of memory used by VASP on root node    33448. kBytes
========================================================================

   base      :      30000. kBytes
   nonl-proj :        947. kBytes
   fftplans  :        439. kBytes
   grid      :       1353. kBytes
   one-center:         31. kBytes
   wavefun   :        678. kBytes
 
     INWAV:  cpu time    0.0000: real time    0.0000
 Broyden mixing: mesh for mixing (old mesh)
   NGX =  9   NGY =  9   NGZ =  9
  (NGX  = 36   NGY  = 36   NGZ  = 36)
  gives a total of    729 points

 initial charge density was supplied:
 charge density of overlapping atoms calculated
 number of electron       8.0000000 magnetization       4.0000000
 keeping initial charge density in first step


--------------------------------------------------------------------------------------------------------


 Maximum index for augmentation-charges         3777 (set IRDMAX)


--------------------------------------------------------------------------------------------------------


 First call to EWALD:  gamma=   0.744
 Maximum number of real-space cells 3x 3x 3
 Maximum number of reciprocal cells 3x 3x 3

 FEWALD executed in parallel
    FEWALD:  cpu time    0.0030: real time    0.0010


----------------------------------------- Iteration    1(   1)  ---------------------------------------


    POTLOK:  cpu time    0.0400: real time    0.0275
    SETDIJ:  cpu time    0.0150: real time    0.0072
     EDDAV:  cpu time    3.7214: real time    2.3691
 BZINTS: Fermi energy: 12.169726;  8.000000 electrons
         Band energy:  57.926860;  BLOECHL correction: -0.504843
       DOS:  cpu time    0.0480: real time    0.0305
    --------------------------------------------
      LOOP:  cpu time    3.8264: real time    2.4364

 eigenvalue-minimisations  :  1364
 total energy-change (2. order) : 0.1724440E+02  (-0.3565320E+03)
 number of electron       8.0000000 magnetization       4.0000000
 augmentation part        8.0000000 magnetization       4.0000000

 Free energy of the ion-electron system (eV)
  ---------------------------------------------------
  alpha Z        PSCENC =        51.19538963
  Ewald energy   TEWEN  =      -558.97799591
  -Hartree energ DENC   =      -124.96240214
  -exchange      EXHF   =         0.00000000
  -V(xc)+E(xc)   XCENC  =         5.51202287
  PAW double counting   =       552.89180568     -560.64780826
  entropy T*S    EENTRO =         0.00000000
  eigenvalues    EBANDS =        57.92686018
  atomic energy  EATOM  =       594.30652615
  Solvation  Ediel_sol  =         0.00000000
  ---------------------------------------------------
  free energy    TOTEN  =        17.24439819 eV

  energy without entropy =       17.24439819  energy(sigma->0) =       17.24439819


--------------------------------------------------------------------------------------------------------




----------------------------------------- Iteration    1(   2)  ---------------------------------------


     EDDAV:  cpu time    3.8034: real time    2.3012
 BZINTS: Fermi energy:  6.653763;  8.000000 electrons
         Band energy:  32.623842;  BLOECHL correction: -0.070291
       DOS:  cpu time    0.0610: real time    0.0354
    --------------------------------------------
      LOOP:  cpu time    3.9144: real time    2.3656

 eigenvalue-minimisations  :  1304
 total energy-change (2. order) :-0.2530302E+02  (-0.2318044E+02)
 number of electron       8.0000000 magnetization       4.0000000
 augmentation part        8.0000000 magnetization       4.0000000

 Free energy of the ion-electron system (eV)
  ---------------------------------------------------
  alpha Z        PSCENC =        51.19538963
  Ewald energy   TEWEN  =      -558.97799591
  -Hartree energ DENC   =      -124.96240214
  -exchange      EXHF   =         0.00000000
  -V(xc)+E(xc)   XCENC  =         5.51202287
  PAW double counting   =       552.89180568     -560.64780826
  entropy T*S    EENTRO =         0.00000000
  eigenvalues    EBANDS =        32.62384195
  atomic energy  EATOM  =       594.30652615
  Solvation  Ediel_sol  =         0.00000000
  ---------------------------------------------------
  free energy    TOTEN  =        -8.05862004 eV

  energy without entropy =       -8.05862004  energy(sigma->0) =       -8.05862004


--------------------------------------------------------------------------------------------------------




----------------------------------------- Iteration    1(   3)  ---------------------------------------


     EDDAV:  cpu time    4.0944: real time    2.5587
 BZINTS: Fermi energy:  6.538452;  8.000000 electrons
         Band energy:  31.986876;  BLOECHL correction: -0.068510
       DOS:  cpu time    0.0740: real time    0.0494
    --------------------------------------------
      LOOP:  cpu time    4.2004: real time    2.6280

 eigenvalue-minimisations  :  1456
 total energy-change (2. order) :-0.6369656E+00  (-0.6364449E+00)
 number of electron       8.0000000 magnetization       4.0000000
 augmentation part        8.0000000 magnetization       4.0000000

 Free energy of the ion-electron system (eV)
  ---------------------------------------------------
  alpha Z        PSCENC =        51.19538963
  Ewald energy   TEWEN  =      -558.97799591
  -Hartree energ DENC   =      -124.96240214
  -exchange      EXHF   =         0.00000000
  -V(xc)+E(xc)   XCENC  =         5.51202287
  PAW double counting   =       552.89180568     -560.64780826
  entropy T*S    EENTRO =         0.00000000
  eigenvalues    EBANDS =        31.98687635
  atomic energy  EATOM  =       594.30652615
  Solvation  Ediel_sol  =         0.00000000
  ---------------------------------------------------
  free energy    TOTEN  =        -8.69558564 eV

  energy without entropy =       -8.69558564  energy(sigma->0) =       -8.69558564


--------------------------------------------------------------------------------------------------------




----------------------------------------- Iteration    1(   4)  ---------------------------------------


     EDDAV:  cpu time    3.7954: real time    2.4446
 BZINTS: Fermi energy:  6.538027;  8.000000 electrons
         Band energy:  31.984467;  BLOECHL correction: -0.068496
       DOS:  cpu time    0.0790: real time    0.0526
    --------------------------------------------
      LOOP:  cpu time    3.8794: real time    2.4999

 eigenvalue-minimisations  :  1428
 total energy-change (2. order) :-0.2409269E-02  (-0.2420059E-02)
 number of electron       8.0000000 magnetization       4.0000000
 augmentation part        8.0000000 magnetization       4.0000000

 Free energy of the ion-electron system (eV)
  ---------------------------------------------------
  alpha Z        PSCENC =        51.19538963
  Ewald energy   TEWEN  =      -558.97799591
  -Hartree energ DENC   =      -124.96240214
  -exchange      EXHF   =         0.00000000
  -V(xc)+E(xc)   XCENC  =         5.51202287
  PAW double counting   =       552.89180568     -560.64780826
  entropy T*S    EENTRO =         0.00000000
  eigenvalues    EBANDS =        31.98446708
  atomic energy  EATOM  =       594.30652615
  Solvation  Ediel_sol  =         0.00000000
  ---------------------------------------------------
  free energy    TOTEN  =        -8.69799491 eV

  energy without entropy =       -8.69799491  energy(sigma->0) =       -8.69799491


--------------------------------------------------------------------------------------------------------




----------------------------------------- Iteration    1(   5)  ---------------------------------------


     EDDAV:  cpu time    4.0484: real time    2.5461
 BZINTS: Fermi energy:  6.538025;  8.000000 electrons
         Band energy:  31.984450;  BLOECHL correction: -0.068496
       DOS:  cpu time    0.0550: real time    0.0322
    CHARGE:  cpu time    0.0700: real time    0.0444
    MIXING:  cpu time    0.0030: real time    0.0011
    --------------------------------------------
      LOOP:  cpu time    4.1834: real time    2.6277

 eigenvalue-minimisations  :  1408
 total energy-change (2. order) :-0.1680447E-04  (-0.1686505E-04)
 number of electron       8.0000010 magnetization       2.2006532
 augmentation part        3.6397445 magnetization       1.4018216

 Broyden mixing:
  rms(total) = 0.10246E+01    rms(broyden)= 0.10245E+01
  rms(prec ) = 0.32207E+01
  weight for this iteration     100.00

 Free energy of the ion-electron system (eV)
  ---------------------------------------------------
  alpha Z        PSCENC =        51.19538963
  Ewald energy   TEWEN  =      -558.97799591
  -Hartree energ DENC   =      -124.96240214
  -exchange      EXHF   =         0.00000000
  -V(xc)+E(xc)   XCENC  =         5.51202287
  PAW double counting   =       552.89180568     -560.64780826
  entropy T*S    EENTRO =         0.00000000
  eigenvalues    EBANDS =        31.98445028
  atomic energy  EATOM  =       594.30652615
  Solvation  Ediel_sol  =         0.00000000
  ---------------------------------------------------
  free energy    TOTEN  =        -8.69801171 eV

  energy without entropy =       -8.69801171  energy(sigma->0) =       -8.69801171


--------------------------------------------------------------------------------------------------------




----------------------------------------- Iteration    1(   6)  ---------------------------------------


    POTLOK:  cpu time    0.0470: real time    0.0263
    SETDIJ:  cpu time    0.0070: real time    0.0065
     EDDAV:  cpu time    3.7724: real time    2.4051
 BZINTS: Fermi energy:  3.557351;  8.000000 electrons
         Band energy:  14.391064;  BLOECHL correction: -0.062540
       DOS:  cpu time    0.0730: real time    0.0473
    CHARGE:  cpu time    0.0470: real time    0.0277
    MIXING:  cpu time    0.0010: real time    0.0008
    --------------------------------------------
      LOOP:  cpu time    3.9534: real time    2.5168

 eigenvalue-minimisations  :  1404
 total energy-change (2. order) : 0.4564230E+00  (-0.1213354E+01)
 number of electron       8.0000012 magnetization       2.4795686
 augmentation part        4.3923189 magnetization       2.0640231

 Broyden mixing:
  rms(total) = 0.70450E+00    rms(broyden)= 0.70443E+00
  rms(prec ) = 0.11496E+01
  weight for this iteration     100.00

 eigenvalues of (default mixing * dielectric matrix)
  average eigenvalue GAMMA=   0.5391
  0.5391

 Free energy of the ion-electron system (eV)
  ---------------------------------------------------
  alpha Z        PSCENC =        51.19538963
  Ewald energy   TEWEN  =      -558.97799591
  -Hartree energ DENC   =      -107.41801961
  -exchange      EXHF   =         0.00000000
  -V(xc)+E(xc)   XCENC  =         3.78030826
  PAW double counting   =       576.83401550     -582.35287628
  entropy T*S    EENTRO =         0.00000000
  eigenvalues    EBANDS =        14.39106350
  atomic energy  EATOM  =       594.30652615
  Solvation  Ediel_sol  =         0.00000000
  ---------------------------------------------------
  free energy    TOTEN  =        -8.24158876 eV

  energy without entropy =       -8.24158876  energy(sigma->0) =       -8.24158876


--------------------------------------------------------------------------------------------------------




----------------------------------------- Iteration    1(   7)  ---------------------------------------


    POTLOK:  cpu time    0.1160: real time    0.0695
    SETDIJ:  cpu time    0.0290: real time    0.0197
     EDDAV:  cpu time    4.3973: real time    2.7613
 BZINTS: Fermi energy:  4.354764;  8.000000 electrons
         Band energy:  19.658015;  BLOECHL correction: -0.055258
       DOS:  cpu time    0.0760: real time    0.0523
    CHARGE:  cpu time    0.0440: real time    0.0297
    MIXING:  cpu time    0.0020: real time    0.0008
    --------------------------------------------
      LOOP:  cpu time    4.6713: real time    2.9363

 eigenvalue-minimisations  :  1452
 total energy-change (2. order) : 0.1474713E+00  (-0.1204466E+00)
 number of electron       8.0000012 magnetization       2.5171976
 augmentation part        4.1423216 magnetization       2.0904067

 Broyden mixing:
  rms(total) = 0.36350E+00    rms(broyden)= 0.36349E+00
  rms(prec ) = 0.48486E+00
  weight for this iteration     100.00

 eigenvalues of (default mixing * dielectric matrix)
  average eigenvalue GAMMA=   0.6957
  0.8404  0.5510

 Free energy of the ion-electron system (eV)
  ---------------------------------------------------
  alpha Z        PSCENC =        51.19538963
  Ewald energy   TEWEN  =      -558.97799591
  -Hartree energ DENC   =      -111.23051396
  -exchange      EXHF   =         0.00000000
  -V(xc)+E(xc)   XCENC  =         4.27425755
  PAW double counting   =       607.72496299     -615.04475930
  entropy T*S    EENTRO =         0.00000000
  eigenvalues    EBANDS =        19.65801537
  atomic energy  EATOM  =       594.30652615
  Solvation  Ediel_sol  =         0.00000000
  ---------------------------------------------------
  free energy    TOTEN  =        -8.09411748 eV

  energy without entropy =       -8.09411748  energy(sigma->0) =       -8.09411748


--------------------------------------------------------------------------------------------------------




----------------------------------------- Iteration    1(   8)  ---------------------------------------


    POTLOK:  cpu time    0.0580: real time    0.0387
    SETDIJ:  cpu time    0.0090: real time    0.0063
     EDDAV:  cpu time    4.0974: real time    2.6807
 BZINTS: Fermi energy:  4.321355;  8.000000 electrons
         Band energy:  19.151875;  BLOECHL correction: -0.057684
       DOS:  cpu time    0.0680: real time    0.0459
    CHARGE:  cpu time    0.0510: real time    0.0339
    MIXING:  cpu time    0.0030: real time    0.0012
    --------------------------------------------
      LOOP:  cpu time    4.2913: real time    2.8097

 eigenvalue-minimisations  :  1536
 total energy-change (2. order) : 0.3841056E-02  (-0.1478226E-02)
 number of electron       8.0000012 magnetization       2.5373236
 augmentation part        4.1593419 magnetization       2.1151514

 Broyden mixing:
  rms(total) = 0.13324E+00    rms(broyden)= 0.13324E+00
  rms(prec ) = 0.23400E+00
  weight for this iteration     100.00

 eigenvalues of (default mixing * dielectric matrix)
  average eigenvalue GAMMA=   1.0931
  1.9516  0.7540  0.5738

 Free energy of the ion-electron system (eV)
  ---------------------------------------------------
  alpha Z        PSCENC =        51.19538963
  Ewald energy   TEWEN  =      -558.97799591
  -Hartree energ DENC   =      -110.27695034
  -exchange      EXHF   =         0.00000000
  -V(xc)+E(xc)   XCENC  =         4.28819765
  PAW double counting   =       623.66488627     -631.44220490
  entropy T*S    EENTRO =         0.00000000
  eigenvalues    EBANDS =        19.15187503
  atomic energy  EATOM  =       594.30652615
  Solvation  Ediel_sol  =         0.00000000
  ---------------------------------------------------
  free energy    TOTEN  =        -8.09027643 eV

  energy without entropy =       -8.09027643  energy(sigma->0) =       -8.09027643


--------------------------------------------------------------------------------------------------------




----------------------------------------- Iteration    1(   9)  ---------------------------------------


    POTLOK:  cpu time    0.0470: real time    0.0327
    SETDIJ:  cpu time    0.0290: real time    0.0188
     EDDAV:  cpu time    3.7234: real time    2.4541
 BZINTS: Fermi energy:  4.253653;  8.000000 electrons
         Band energy:  18.448991;  BLOECHL correction: -0.060819
       DOS:  cpu time    0.0420: real time    0.0273
    CHARGE:  cpu time    0.0750: real time    0.0445
    MIXING:  cpu time    0.0030: real time    0.0014
    --------------------------------------------
      LOOP:  cpu time    3.9234: real time    2.5815

 eigenvalue-minimisations  :  1496
 total energy-change (2. order) : 0.4476894E-02  (-0.1908091E-02)
 number of electron       8.0000012 magnetization       2.5153765
 augmentation part        4.1860757 magnetization       2.0996806

 Broyden mixing:
  rms(total) = 0.32947E-01    rms(broyden)= 0.32946E-01
  rms(prec ) = 0.43370E-01
  weight for this iteration     100.00

 eigenvalues of (default mixing * dielectric matrix)
  average eigenvalue GAMMA=   1.0945
  2.2378  0.7755  0.7755  0.5890

 Free energy of the ion-electron system (eV)
  ---------------------------------------------------
  alpha Z        PSCENC =        51.19538963
  Ewald energy   TEWEN  =      -558.97799591
  -Hartree energ DENC   =      -108.78218237
  -exchange      EXHF   =         0.00000000
  -V(xc)+E(xc)   XCENC  =         4.29808432
  PAW double counting   =       652.05661195     -660.63122456
  entropy T*S    EENTRO =         0.00000000
  eigenvalues    EBANDS =        18.44899125
  atomic energy  EATOM  =       594.30652615
  Solvation  Ediel_sol  =         0.00000000
  ---------------------------------------------------
  free energy    TOTEN  =        -8.08579953 eV

  energy without entropy =       -8.08579953  energy(sigma->0) =       -8.08579953


--------------------------------------------------------------------------------------------------------




----------------------------------------- Iteration    1(  10)  ---------------------------------------


    POTLOK:  cpu time    0.0550: real time    0.0338
    SETDIJ:  cpu time    0.0100: real time    0.0075
     EDDAV:  cpu time    3.4805: real time    2.1608
 BZINTS: Fermi energy:  4.259598;  8.000000 electrons
         Band energy:  18.606582;  BLOECHL correction: -0.060084
       DOS:  cpu time    0.0510: real time    0.0280
    CHARGE:  cpu time    0.0830: real time    0.0520
    MIXING:  cpu time    0.0020: real time    0.0009
    --------------------------------------------
      LOOP:  cpu time    3.6864: real time    2.2859

 eigenvalue-minimisations  :  1408
 total energy-change (2. order) : 0.2095624E-03  (-0.1854723E-03)
 number of electron       8.0000012 magnetization       2.5114565
 augmentation part        4.1803664 magnetization       2.0927657

 Broyden mixing:
  rms(total) = 0.64521E-02    rms(broyden)= 0.64492E-02
  rms(prec ) = 0.96567E-02
  weight for this iteration     100.00

 eigenvalues of (default mixing * dielectric matrix)
  average eigenvalue GAMMA=   1.1885
  2.4336  1.3660  0.6370  0.6370  0.8692

 Free energy of the ion-electron system (eV)
  ---------------------------------------------------
  alpha Z        PSCENC =        51.19538963
  Ewald energy   TEWEN  =      -558.97799591
  -Hartree energ DENC   =      -108.76071367
  -exchange      EXHF   =         0.00000000
  -V(xc)+E(xc)   XCENC  =         4.26964646
  PAW double counting   =       657.05554707     -665.78057171
  entropy T*S    EENTRO =         0.00000000
  eigenvalues    EBANDS =        18.60658202
  atomic energy  EATOM  =       594.30652615
  Solvation  Ediel_sol  =         0.00000000
  ---------------------------------------------------
  free energy    TOTEN  =        -8.08558997 eV

  energy without entropy =       -8.08558997  energy(sigma->0) =       -8.08558997


--------------------------------------------------------------------------------------------------------




----------------------------------------- Iteration    1(  11)  ---------------------------------------


    POTLOK:  cpu time    0.0550: real time    0.0319
    SETDIJ:  cpu time    0.0170: real time    0.0113
     EDDAV:  cpu time    4.5133: real time    2.8633
 BZINTS: Fermi energy:  4.259006;  8.000000 electrons
         Band energy:  18.657428;  BLOECHL correction: -0.059818
       DOS:  cpu time    0.0590: real time    0.0363
    CHARGE:  cpu time    0.0620: real time    0.0361
    MIXING:  cpu time    0.0030: real time    0.0013
    --------------------------------------------
      LOOP:  cpu time    4.7123: real time    2.9827

 eigenvalue-minimisations  :  1620
 total energy-change (2. order) : 0.3006338E-04  (-0.4500584E-04)
 number of electron       8.0000012 magnetization       2.5099329
 augmentation part        4.1789534 magnetization       2.0881522

 Broyden mixing:
  rms(total) = 0.59979E-02    rms(broyden)= 0.59965E-02
  rms(prec ) = 0.68651E-02
  weight for this iteration     100.00

 eigenvalues of (default mixing * dielectric matrix)
  average eigenvalue GAMMA=   1.0961
  2.3142  1.3322  0.9161  0.6356  0.6892  0.6892

 Free energy of the ion-electron system (eV)
  ---------------------------------------------------
  alpha Z        PSCENC =        51.19538963
  Ewald energy   TEWEN  =      -558.97799591
  -Hartree energ DENC   =      -108.76506772
  -exchange      EXHF   =         0.00000000
  -V(xc)+E(xc)   XCENC  =         4.25429930
  PAW double counting   =       658.75846996     -667.51460898
  entropy T*S    EENTRO =         0.00000000
  eigenvalues    EBANDS =        18.65742767
  atomic energy  EATOM  =       594.30652615
  Solvation  Ediel_sol  =         0.00000000
  ---------------------------------------------------
  free energy    TOTEN  =        -8.08555991 eV

  energy without entropy =       -8.08555991  energy(sigma->0) =       -8.08555991


--------------------------------------------------------------------------------------------------------




----------------------------------------- Iteration    1(  12)  ---------------------------------------


    POTLOK:  cpu time    0.0450: real time    0.0319
    SETDIJ:  cpu time    0.0130: real time    0.0095
     EDDAV:  cpu time    3.7424: real time    2.3844
 BZINTS: Fermi energy:  4.258484;  8.000000 electrons
         Band energy:  18.649666;  BLOECHL correction: -0.059852
       DOS:  cpu time    0.0700: real time    0.0431
    CHARGE:  cpu time    0.0470: real time    0.0280
    MIXING:  cpu time    0.0020: real time    0.0010
    --------------------------------------------
      LOOP:  cpu time    3.9244: real time    2.5008

 eigenvalue-minimisations  :  1404
 total energy-change (2. order) :-0.2625039E-04  (-0.1090773E-05)
 number of electron       8.0000012 magnetization       2.5117841
 augmentation part        4.1792020 magnetization       2.0903195

 Broyden mixing:
  rms(total) = 0.22865E-02    rms(broyden)= 0.22862E-02
  rms(prec ) = 0.36208E-02
  weight for this iteration     100.00

 eigenvalues of (default mixing * dielectric matrix)
  average eigenvalue GAMMA=   1.3072
  2.4291  2.4291  1.3733  0.9294  0.6531  0.6531  0.6833

 Free energy of the ion-electron system (eV)
  ---------------------------------------------------
  alpha Z        PSCENC =        51.19538963
  Ewald energy   TEWEN  =      -558.97799591
  -Hartree energ DENC   =      -108.77600729
  -exchange      EXHF   =         0.00000000
  -V(xc)+E(xc)   XCENC  =         4.25436749
  PAW double counting   =       658.50986232     -667.24739420
  entropy T*S    EENTRO =         0.00000000
  eigenvalues    EBANDS =        18.64966566
  atomic energy  EATOM  =       594.30652615
  Solvation  Ediel_sol  =         0.00000000
  ---------------------------------------------------
  free energy    TOTEN  =        -8.08558616 eV

  energy without entropy =       -8.08558616  energy(sigma->0) =       -8.08558616


--------------------------------------------------------------------------------------------------------




----------------------------------------- Iteration    1(  13)  ---------------------------------------


    POTLOK:  cpu time    0.0670: real time    0.0397
    SETDIJ:  cpu time    0.0200: real time    0.0119
     EDDAV:  cpu time    3.8544: real time    2.4065
 BZINTS: Fermi energy:  4.256697;  8.000000 electrons
         Band energy:  18.634021;  BLOECHL correction: -0.059898
       DOS:  cpu time    0.0660: real time    0.0419
    CHARGE:  cpu time    0.0410: real time    0.0230
    MIXING:  cpu time    0.0100: real time    0.0056
    --------------------------------------------
      LOOP:  cpu time    4.0674: real time    2.5359

 eigenvalue-minimisations  :  1348
 total energy-change (2. order) :-0.2254482E-04  (-0.1286396E-05)
 number of electron       8.0000012 magnetization       2.5113213
 augmentation part        4.1798082 magnetization       2.0900802

 Broyden mixing:
  rms(total) = 0.91503E-03    rms(broyden)= 0.91489E-03
  rms(prec ) = 0.13187E-02
  weight for this iteration     100.00

 eigenvalues of (default mixing * dielectric matrix)
  average eigenvalue GAMMA=   1.2569
  2.6212  2.6212  1.2544  0.9314  0.6954  0.6954  0.6182  0.6182

 Free energy of the ion-electron system (eV)
  ---------------------------------------------------
  alpha Z        PSCENC =        51.19538963
  Ewald energy   TEWEN  =      -558.97799591
  -Hartree energ DENC   =      -108.76702145
  -exchange      EXHF   =         0.00000000
  -V(xc)+E(xc)   XCENC  =         4.25759414
  PAW double counting   =       658.88410728     -667.61822997
  entropy T*S    EENTRO =         0.00000000
  eigenvalues    EBANDS =        18.63402144
  atomic energy  EATOM  =       594.30652615
  Solvation  Ediel_sol  =         0.00000000
  ---------------------------------------------------
  free energy    TOTEN  =        -8.08560870 eV

  energy without entropy =       -8.08560870  energy(sigma->0) =       -8.08560870


--------------------------------------------------------------------------------------------------------




----------------------------------------- Iteration    1(  14)  ---------------------------------------


    POTLOK:  cpu time    0.0750: real time    0.0432
    SETDIJ:  cpu time    0.0280: real time    0.0179
     EDDAV:  cpu time    2.5416: real time    1.6115
 BZINTS: Fermi energy:  4.257281;  8.000000 electrons
         Band energy:  18.637547;  BLOECHL correction: -0.059898
       DOS:  cpu time    0.0710: real time    0.0417
    CHARGE:  cpu time    0.0600: real time    0.0390
    MIXING:  cpu time    0.0030: real time    0.0016
    --------------------------------------------
      LOOP:  cpu time    2.7886: real time    1.7635

 eigenvalue-minimisations  :   716
 total energy-change (2. order) :-0.4994162E-05  (-0.7861457E-07)
 number of electron       8.0000012 magnetization       2.5115152
 augmentation part        4.1796434 magnetization       2.0901699

 Broyden mixing:
  rms(total) = 0.32649E-03    rms(broyden)= 0.32647E-03
  rms(prec ) = 0.35138E-03
  weight for this iteration     100.00

 eigenvalues of (default mixing * dielectric matrix)
  average eigenvalue GAMMA=   1.2058
  2.7578  2.4372  1.2574  0.9490  0.7876  0.7876  0.6390  0.6390  0.5971

 Free energy of the ion-electron system (eV)
  ---------------------------------------------------
  alpha Z        PSCENC =        51.19538963
  Ewald energy   TEWEN  =      -558.97799591
  -Hartree energ DENC   =      -108.77012852
  -exchange      EXHF   =         0.00000000
  -V(xc)+E(xc)   XCENC  =         4.25649625
  PAW double counting   =       658.89497513     -667.62842377
  entropy T*S    EENTRO =         0.00000000
  eigenvalues    EBANDS =        18.63754735
  atomic energy  EATOM  =       594.30652615
  Solvation  Ediel_sol  =         0.00000000
  ---------------------------------------------------
  free energy    TOTEN  =        -8.08561370 eV

  energy without entropy =       -8.08561370  energy(sigma->0) =       -8.08561370


--------------------------------------------------------------------------------------------------------




----------------------------------------- Iteration    1(  15)  ---------------------------------------


    POTLOK:  cpu time    0.0460: real time    0.0302
    SETDIJ:  cpu time    0.0180: real time    0.0132
     EDDAV:  cpu time    1.9257: real time    1.2802
 BZINTS: Fermi energy:  4.257337;  8.000000 electrons
         Band energy:  18.637647;  BLOECHL correction: -0.059899
       DOS:  cpu time    0.0760: real time    0.0508
    CHARGE:  cpu time    0.0400: real time    0.0259
    MIXING:  cpu time    0.0020: real time    0.0018
    --------------------------------------------
      LOOP:  cpu time    2.1107: real time    1.4053

 eigenvalue-minimisations  :   648
 total energy-change (2. order) :-0.1629278E-05  (-0.2187764E-08)
 number of electron       8.0000012 magnetization       2.5114633
 augmentation part        4.1796376 magnetization       2.0901154

 Broyden mixing:
  rms(total) = 0.14782E-03    rms(broyden)= 0.14782E-03
  rms(prec ) = 0.21796E-03
  weight for this iteration     100.00

 eigenvalues of (default mixing * dielectric matrix)
  average eigenvalue GAMMA=   1.2227
  2.7755  2.3649  1.4649  1.2324  0.9612  0.8314  0.7126  0.6454  0.6454  0.5932

 Free energy of the ion-electron system (eV)
  ---------------------------------------------------
  alpha Z        PSCENC =        51.19538963
  Ewald energy   TEWEN  =      -558.97799591
  -Hartree energ DENC   =      -108.76925294
  -exchange      EXHF   =         0.00000000
  -V(xc)+E(xc)   XCENC  =         4.25670215
  PAW double counting   =       658.90797939     -667.64261060
  entropy T*S    EENTRO =         0.00000000
  eigenvalues    EBANDS =        18.63764681
  atomic energy  EATOM  =       594.30652615
  Solvation  Ediel_sol  =         0.00000000
  ---------------------------------------------------
  free energy    TOTEN  =        -8.08561532 eV

  energy without entropy =       -8.08561532  energy(sigma->0) =       -8.08561532


--------------------------------------------------------------------------------------------------------




----------------------------------------- Iteration    1(  16)  ---------------------------------------


    POTLOK:  cpu time    0.0500: real time    0.0324
    SETDIJ:  cpu time    0.0140: real time    0.0095
     EDDAV:  cpu time    2.5136: real time    1.6095
 BZINTS: Fermi energy:  4.257390;  8.000000 electrons
         Band energy:  18.638334;  BLOECHL correction: -0.059897
       DOS:  cpu time    0.0760: real time    0.0514
    CHARGE:  cpu time    0.0530: real time    0.0350
    MIXING:  cpu time    0.0020: real time    0.0012
    --------------------------------------------
      LOOP:  cpu time    2.7126: real time    1.7418

 eigenvalue-minimisations  :   644
 total energy-change (2. order) : 0.1351240E-05  (-0.2363169E-08)
 number of electron       8.0000012 magnetization       2.5114447
 augmentation part        4.1796116 magnetization       2.0900848

 Broyden mixing:
  rms(total) = 0.30664E-04    rms(broyden)= 0.30660E-04
  rms(prec ) = 0.44530E-04
  weight for this iteration     100.00

 eigenvalues of (default mixing * dielectric matrix)
  average eigenvalue GAMMA=   1.3052
  2.8328  2.5322  2.5322  1.2444  0.9845  0.8241  0.8241  0.6748  0.6748  0.6166
  0.6166

 Free energy of the ion-electron system (eV)
  ---------------------------------------------------
  alpha Z        PSCENC =        51.19538963
  Ewald energy   TEWEN  =      -558.97799591
  -Hartree energ DENC   =      -108.76968566
  -exchange      EXHF   =         0.00000000
  -V(xc)+E(xc)   XCENC  =         4.25659435
  PAW double counting   =       658.90259050     -667.63736670
  entropy T*S    EENTRO =         0.00000000
  eigenvalues    EBANDS =        18.63833368
  atomic energy  EATOM  =       594.30652615
  Solvation  Ediel_sol  =         0.00000000
  ---------------------------------------------------
  free energy    TOTEN  =        -8.08561397 eV

  energy without entropy =       -8.08561397  energy(sigma->0) =       -8.08561397


--------------------------------------------------------------------------------------------------------




----------------------------------------- Iteration    1(  17)  ---------------------------------------


    POTLOK:  cpu time    0.0500: real time    0.0336
    SETDIJ:  cpu time    0.0190: real time    0.0134
     EDDAV:  cpu time    2.3276: real time    1.4722
 BZINTS: Fermi energy:  4.257398;  8.000000 electrons
         Band energy:  18.638454;  BLOECHL correction: -0.059896
       DOS:  cpu time    0.0770: real time    0.0523
    --------------------------------------------
      LOOP:  cpu time    2.4786: real time    1.5746

 eigenvalue-minimisations  :   640
 total energy-change (2. order) : 0.2311419E-06  (-0.1467649E-09)
 number of electron       8.0000012 magnetization       2.5114447
 augmentation part        4.1796116 magnetization       2.0900848

 Free energy of the ion-electron system (eV)
  ---------------------------------------------------
  alpha Z        PSCENC =        51.19538963
  Ewald energy   TEWEN  =      -558.97799591
  -Hartree energ DENC   =      -108.76990766
  -exchange      EXHF   =         0.00000000
  -V(xc)+E(xc)   XCENC  =         4.25655984
  PAW double counting   =       658.89827078     -667.63291008
  entropy T*S    EENTRO =         0.00000000
  eigenvalues    EBANDS =        18.63845351
  atomic energy  EATOM  =       594.30652615
  Solvation  Ediel_sol  =         0.00000000
  ---------------------------------------------------
  free energy    TOTEN  =        -8.08561374 eV

  energy without entropy =       -8.08561374  energy(sigma->0) =       -8.08561374


--------------------------------------------------------------------------------------------------------




 average (electrostatic) potential at core
  the test charge radii are     1.0103
  (the norm of the test charge is              1.0000)
       1 -44.7295
 
 
 
 E-fermi :   4.2574     XC(G=0): -12.1618     alpha+bet :-11.4818


 spin component 1

 k-point     1 :       0.0625    0.0625    0.0625
  band No.  band energies     occupation 
      1      -2.3890      1.00000
      2       1.9313      1.00000
      3       1.9313      1.00000
      4       2.5450      1.00000
      5       3.0204      1.00000
      6       3.0204      1.00168
      7      23.7350      0.00000
      8      23.7350      0.00000
      9      26.1670      0.00000
     10      28.3849      0.00000
     11      31.8915      0.00000
     12      31.8915      0.00000

 k-point     2 :       0.1875    0.0625    0.0625
  band No.  band energies     occupation 
      1      -0.9523      1.00000
      2       1.6223      1.00000
      3       1.7998      1.00000
      4       2.9667      1.00000
      5       3.1078      1.00000
      6       3.3441      1.01291
      7      18.3827      0.00000
      8      21.4838      0.00000
      9      22.8202      0.00000
     10      28.3916      0.00000
     11      31.2196      0.00000
     12      32.7149      0.00000

 k-point     3 :       0.3125    0.0625    0.0625
  band No.  band energies     occupation 
      1       0.1608      1.00000
      2       1.3541      1.00000
      3       2.4641      1.00000
      4       3.0672      1.00000
      5       3.1764      1.00000
      6       4.5472      0.16983
      7      13.1837      0.00000
      8      19.9444      0.00000
      9      20.8033      0.00000
     10      27.6600      0.00000
     11      30.5616      0.00000
     12      35.7298      0.00000

 k-point     4 :       0.4375    0.0625    0.0625
  band No.  band energies     occupation 
      1       0.2485      1.00000
      2       1.2506      1.00000
      3       3.1124      1.00000
      4       3.2041      1.00000
      5       3.2693      1.00000
      6       5.9734     -0.01105
      7      10.1654      0.00000
      8      19.3940      0.00000
      9      20.0538      0.00000
     10      27.3786      0.00000
     11      30.4197      0.00000
     12      36.1231      0.00000

 k-point     5 :      -0.0625    0.0625    0.0625
  band No.  band energies     occupation 
      1      -2.9344      1.00000
      2       2.0820      1.00000
      3       2.0820      1.00000
      4       2.1486      1.00000
      5       2.9670      1.00000
      6       3.1124      1.00000
      7      25.8678      0.00000
      8      26.9584      0.00000
      9      26.9584      0.00000
     10      29.0575      0.00000
     11      30.6199      0.00000
     12      30.6199      0.00000

 k-point     6 :       0.1875    0.1875    0.0625
  band No.  band energies     occupation 
      1       0.3971      1.00000
      2       1.4266      1.00000
      3       1.5696      1.00000
      4       3.0250      1.00000
      5       3.2002      1.00000
      6       4.6958      0.15133
      7      16.1444      0.00000
      8      16.6190      0.00000
      9      20.1794      0.00000
     10      30.1246      0.00000
     11      32.9573      0.00000
     12      35.1219      0.00000

 k-point     7 :       0.3125    0.1875    0.0625
  band No.  band energies     occupation 
      1       0.7476      1.00000
      2       1.2900      1.00000
      3       2.1102      1.00000
      4       3.1280      1.00000
      5       3.2737      1.00000
      6       6.9559     -0.01043
      7      11.6488      0.00000
      8      15.2768      0.00000
      9      19.0823      0.00000
     10      30.2941      0.00000
     11      34.1669      0.00000
     12      35.5406      0.00000

 k-point     8 :      -0.1875    0.1875    0.0625
  band No.  band energies     occupation 
      1      -1.8739      1.00000
      2       1.8823      1.00000
      3       2.0431      1.00000
      4       2.6269      1.00000
      5       2.7841      1.00000
      6       3.1839      1.00433
      7      21.1592      0.00000
      8      24.5161      0.00000
      9      24.9005      0.00000
     10      28.5010      0.00000
     11      28.5983      0.00000
     12      30.1140      0.00000

 k-point     9 :       0.3125    0.3125    0.0625
  band No.  band energies     occupation 
      1       0.9993      1.00000
      2       1.5939      1.00000
      3       1.5939      1.00000
      4       3.2333      1.00000
      5       3.2333      1.00000
      6      10.2000      0.00000
      7      10.2000      0.00000
      8      12.0350      0.00000
      9      18.6554      0.00000
     10      32.5675      0.00000
     11      32.5675      0.00000
     12      38.2056      0.00000

 k-point    10 :      -0.3125    0.3125    0.0625
  band No.  band energies     occupation 
      1      -0.3480      1.00000
      2       1.5815      1.00000
      3       2.1372      1.00000
      4       2.9294      1.00000
      5       3.3332      1.00000
      6       3.4068      0.95442
      7      15.5915      0.00000
      8      22.3416      0.00000
      9      22.6653      0.00000
     10      27.0446      0.00000
     11      28.5720      0.00000
     12      31.4626      0.00000

 k-point    11 :      -0.1875    0.3125    0.0625
  band No.  band energies     occupation 
      1      -0.5526      1.00000
      2       1.7487      1.00000
      3       1.8830      1.00000
      4       2.6822      1.00000
      5       3.1966      1.00000
      6       3.4882      0.95265
      7      18.5520      0.00000
      8      19.1581      0.00000
      9      25.3539      0.00000
     10      25.6308      0.00000
     11      28.9096      0.00000
     12      33.2196      0.00000

 k-point    12 :      -0.4375    0.4375    0.0625
  band No.  band energies     occupation 
      1       0.1431      1.00000
      2       1.3759      1.00000
      3       2.7436      1.00000
      4       3.0512      1.00000
      5       4.0287      1.00000
      6       4.7148      0.03432
      7      11.0624      0.00000
      8      21.1281      0.00000
      9      21.1810      0.00000
     10      26.3873      0.00000
     11      28.6807      0.00000
     12      33.3140      0.00000

 k-point    13 :      -0.3125    0.4375    0.0625
  band No.  band energies     occupation 
      1       0.4554      1.00000
      2       1.5083      1.00000
      3       1.9747      1.00000
      4       2.9059      1.00000
      5       3.5015      1.00000
      6       4.9935      0.01688
      7      13.5598      0.00000
      8      17.2187      0.00000
      9      23.3653      0.00000
     10      26.3353      0.00000
     11      29.6169      0.00000
     12      33.5718      0.00000

 k-point    14 :      -0.4375   -0.4375    0.0625
  band No.  band energies     occupation 
      1       0.5197      1.00000
      2       1.4871      1.00000
      3       2.1327      1.00000
      4       2.9823      1.00000
      5       3.7790      1.00000
      6       6.9557     -0.00495
      7      10.3014      0.00000
      8      16.5962      0.00000
      9      22.6437      0.00000
     10      26.5433      0.00000
     11      30.8514      0.00000
     12      32.8607      0.00000

 k-point    15 :      -0.3125   -0.4375    0.0625
  band No.  band energies     occupation 
      1       1.0580      1.00000
      2       1.2982      1.00000
      3       1.7112      1.00000
      4       3.1332      1.00000
      5       3.4817      1.00000
      6       7.9218     -0.00216
      7      11.9489      0.00000
      8      12.8609      0.00000
      9      23.5613      0.00000
     10      26.9551      0.00000
     11      28.8757      0.00000
     12      34.3650      0.00000

 k-point    16 :       0.1875    0.1875    0.1875
  band No.  band energies     occupation 
      1       1.2797      1.00000
      2       1.2797      1.00000
      3       1.4070      1.00000
      4       3.1861      1.00000
      5       3.1861      1.00000
      6       6.8698     -0.01231
      7      14.6342      0.00000
      8      14.6342      0.00000
      9      15.2666      0.00000
     10      34.6166      0.00000
     11      36.6257      0.00000
     12      36.6257      0.00000

 k-point    17 :       0.3125    0.1875    0.1875
  band No.  band energies     occupation 
      1       1.1897      1.00000
      2       1.2474      1.00000
      3       1.7813      1.00000
      4       3.2106      1.00000
      5       3.2222      1.00000
      6       9.5682      0.00000
      7      11.0121      0.00000
      8      14.1186      0.00000
      9      14.5382      0.00000
     10      35.3856      0.00000
     11      38.3325      0.00000
     12      38.3752      0.00000

 k-point    18 :      -0.1875    0.1875    0.1875
  band No.  band energies     occupation 
      1      -0.9283      1.00000
      2       2.2090      1.00000
      3       2.2111      1.00000
      4       2.2111      1.00000
      5       2.6395      1.00000
      6       3.4598      0.99805
      7      21.6391      0.00000
      8      21.8516      0.00000
      9      21.8516      0.00000
     10      23.6522      0.00000
     11      32.5016      0.00000
     12      32.5016      0.00000

 k-point    19 :      -0.3125    0.3125    0.1875
  band No.  band energies     occupation 
      1       0.2974      1.00000
      2       1.6267      1.00000
      3       2.1080      1.00000
      4       2.6253      1.00000
      5       3.3197      1.00000
      6       4.1981      0.41305
      7      16.3953      0.00000
      8      19.4407      0.00000
      9      20.9408      0.00000
     10      24.3159      0.00000
     11      31.5507      0.00000
     12      33.0734      0.00000

 k-point    20 :      -0.4375    0.4375    0.1875
  band No.  band energies     occupation 
      1       0.6112      1.00000
      2       1.5815      1.00000
      3       1.9573      1.00000
      4       2.7885      1.00000
      5       3.9672      1.00000
      6       6.5061     -0.02108
      7      11.6176      0.00000
      8      18.0011      0.00000
      9      20.1544      0.00000
     10      26.8375      0.00000
     11      30.6965      0.00000
     12      31.0525      0.00000

 k-point    21 :      -0.3125    0.4375    0.1875
  band No.  band energies     occupation 
      1       0.8634      1.00000
      2       1.1448      1.00000
      3       2.1778      1.00000
      4       2.9271      1.00000
      5       3.6461      1.00000
      6       6.3159     -0.03201
      7      14.5034      0.00000
      8      14.8841      0.00000
      9      22.2758      0.00000
     10      23.3481      0.00000
     11      30.2845      0.00000
     12      32.5722      0.00000

 k-point    22 :      -0.4375   -0.4375    0.1875
  band No.  band energies     occupation 
      1       0.8527      1.00000
      2       1.1529      1.00000
      3       2.0241      1.00000
      4       3.1643      1.00000
      5       3.8252      1.00000
      6       9.1332     -0.00002
      7      10.8636      0.00000
      8      14.0629      0.00000
      9      22.2075      0.00000
     10      25.2581      0.00000
     11      27.5582      0.00000
     12      31.7303      0.00000

 k-point    23 :      -0.3125    0.3125    0.3125
  band No.  band energies     occupation 
      1       0.6939      1.00000
      2       1.1161      1.00000
      3       2.8163      1.00000
      4       2.8163      1.00000
      5       3.3469      1.00000
      6       5.7486     -0.05266
      7      16.8219      0.00000
      8      16.8219      0.00000
      9      19.2864      0.00000
     10      20.6934      0.00000
     11      31.1234      0.00000
     12      36.1709      0.00000

 k-point    24 :      -0.4375    0.4375    0.3125
  band No.  band energies     occupation 
      1       0.6504      1.00000
      2       0.7576      1.00000
      3       2.9214      1.00000
      4       3.1400      1.00000
      5       3.8822      1.00000
      6       8.6056     -0.00074
      7      12.8463      0.00000
      8      15.2431      0.00000
      9      19.2727      0.00000
     10      21.8669      0.00000
     11      26.6202      0.00000
     12      35.6815      0.00000

 k-point    25 :      -0.4375   -0.4375    0.3125
  band No.  band energies     occupation 
      1       0.5471      1.00000
      2       0.5471      1.00000
      3       3.0049      1.00000
      4       3.7678      1.00000
      5       3.7678      1.00000
      6      11.7443      0.00000
      7      11.7443      0.00000
      8      12.5811      0.00000
      9      20.7351      0.00000
     10      20.7351      0.00000
     11      23.9475      0.00000
     12      36.1424      0.00000

 k-point    26 :      -0.4375    0.4375    0.4375
  band No.  band energies     occupation 
      1       0.3429      1.00000
      2       0.3462      1.00000
      3       3.7371      1.00000
      4       3.7371      1.00000
      5       3.8550      1.00000
      6      11.1976      0.00000
      7      13.5196      0.00000
      8      13.5196      0.00000
      9      18.3454      0.00000
     10      19.3239      0.00000
     11      22.5719      0.00000
     12      39.4270      0.00000

 spin component 2

 k-point     1 :       0.0625    0.0625    0.0625
  band No.  band energies     occupation 
      1      -2.3075      1.00000
      2       4.2145      0.85605
      3       4.2145      0.71864
      4       4.9379      0.00000
      5       5.9461      0.00000
      6       5.9461      0.00000
      7      23.8577      0.00000
      8      23.8577      0.00000
      9      27.0560      0.00000
     10      27.9471      0.00000
     11      32.2813      0.00000
     12      32.2813      0.00000

 k-point     2 :       0.1875    0.0625    0.0625
  band No.  band energies     occupation 
      1      -0.7801      1.00000
      2       3.8093      1.00949
      3       3.9238      1.05454
      4       5.7829      0.00000
      5       5.8288      0.00000
      6       6.0696      0.00000
      7      18.9581      0.00000
      8      21.7298      0.00000
      9      23.5617      0.00000
     10      28.2437      0.00000
     11      31.7649      0.00000
     12      32.9190      0.00000

 k-point     3 :       0.3125    0.0625    0.0625
  band No.  band energies     occupation 
      1       1.0622      1.00000
      2       3.4581      1.00000
      3       3.8658      1.03008
      4       5.9010      0.00000
      5       6.1789      0.00000
      6       6.8167      0.00000
      7      14.1595      0.00000
      8      20.1809      0.00000
      9      21.4549      0.00000
     10      27.7761      0.00000
     11      31.0932      0.00000
     12      35.9166      0.00000

 k-point     4 :       0.4375    0.0625    0.0625
  band No.  band energies     occupation 
      1       1.7297      1.00000
      2       3.3234      1.00000
      3       4.3897      0.65755
      4       5.9551      0.00000
      5       6.2261      0.00000
      6       7.5131      0.00000
      7      11.6487      0.00000
      8      19.6105      0.00000
      9      20.6565      0.00000
     10      27.5708      0.00000
     11      30.9730      0.00000
     12      36.0212      0.00000

 k-point     5 :      -0.0625    0.0625    0.0625
  band No.  band energies     occupation 
      1      -2.8599      1.00000
      2       4.4091      0.04417
      3       4.4091     -0.06700
      4       4.4997      0.00000
      5       5.8785      0.00000
      6       6.0788      0.00000
      7      25.6215      0.00000
      8      26.8060      0.00000
      9      26.8060      0.00000
     10      29.4444      0.00000
     11      31.3515      0.00000
     12      31.3515      0.00000

 k-point     6 :       0.1875    0.1875    0.0625
  band No.  band energies     occupation 
      1       0.9175      1.00000
      2       3.4488      1.00000
      3       3.5396      1.00221
      4       5.8907      0.00000
      5       6.1734      0.00000
      6       6.9614      0.00000
      7      16.8089      0.00000
      8      17.2809      0.00000
      9      20.7262      0.00000
     10      29.9702      0.00000
     11      33.2399      0.00000
     12      35.3685      0.00000

 k-point     7 :       0.3125    0.1875    0.0625
  band No.  band energies     occupation 
      1       2.2134      1.00000
      2       3.2502      1.00000
      3       3.5869      1.01214
      4       6.0015      0.00000
      5       6.2300      0.00000
      6       8.5434      0.00000
      7      12.7241      0.00000
      8      15.9367      0.00000
      9      19.5981      0.00000
     10      30.2906      0.00000
     11      34.2172      0.00000
     12      35.8941      0.00000

 k-point     8 :      -0.1875    0.1875    0.0625
  band No.  band energies     occupation 
      1      -1.7753      1.00000
      2       4.1475      0.96754
      3       4.2973      0.49776
      4       5.0435      0.00000
      5       5.5952      0.00000
      6       6.1615      0.00000
      7      21.5510      0.00000
      8      24.5556      0.00000
      9      25.3333      0.00000
     10      28.9133      0.00000
     11      29.0596      0.00000
     12      30.3821      0.00000

 k-point     9 :       0.3125    0.3125    0.0625
  band No.  band energies     occupation 
      1       2.8317      1.00000
      2       3.2536      1.00000
      3       3.2536      1.00056
      4       6.1428      0.00000
      5       6.1428      0.00000
      6      11.2720      0.00000
      7      11.2720      0.00000
      8      13.0163      0.00000
      9      19.1965      0.00000
     10      32.5030      0.00000
     11      32.5030      0.00000
     12      38.9787      0.00000

 k-point    10 :      -0.3125    0.3125    0.0625
  band No.  band energies     occupation 
      1       0.0646      1.00000
      2       3.7609      1.00668
      3       3.9983      1.03480
      4       5.6444      0.00000
      5       5.9529      0.00000
      6       6.2482      0.00000
      7      16.3827      0.00000
[...]
      1       2.1029      1.00000
      2       3.5810      1.00000
      3       3.7929      1.05711
      4       5.6944      0.00000
      5       6.4489      0.00000
      6       8.2657      0.00000
      7      11.6971      0.00000
      8      17.1832      0.00000
      9      22.9085      0.00000
     10      26.9549      0.00000
     11      30.8561      0.00000
     12      33.3446      0.00000

 k-point    15 :      -0.3125   -0.4375    0.0625
  band No.  band energies     occupation 
      1       2.6728      1.00000
      2       3.1850      1.00000
      3       3.6034      1.02418
      4       5.8108      0.00000
      5       6.1950      0.00000
      6       9.3223      0.00000
      7      12.9294      0.00000
      8      13.7333      0.00000
      9      24.0049      0.00000
     10      27.0632      0.00000
     11      29.0182      0.00000
     12      35.2116      0.00000

 k-point    16 :       0.1875    0.1875    0.1875
  band No.  band energies     occupation 
      1       2.4071      1.00000
      2       3.1736      1.00000
      3       3.1736      1.00067
      4       6.1723      0.00000
      5       6.1723      0.00000
      6       8.6044      0.00000
      7      15.3496      0.00000
      8      15.3496      0.00000
      9      15.9762      0.00000
     10      34.1923      0.00000
     11      36.7003      0.00000
     12      36.7003      0.00000

 k-point    17 :       0.3125    0.1875    0.1875
  band No.  band energies     occupation 
      1       2.8427      1.00000
      2       3.0933      1.00000
      3       3.3249      1.00104
      4       6.1980      0.00000
      5       6.2518      0.00000
      6      10.6664      0.00000
      7      12.1135      0.00000
      8      14.8484      0.00000
      9      15.2336      0.00000
     10      35.1650      0.00000
     11      38.3010      0.00000
     12      38.6170      0.00000

 k-point    18 :      -0.1875    0.1875    0.1875
  band No.  band energies     occupation 
      1      -0.7677      1.00000
      2       4.4796      0.55304
      3       4.4796      0.02600
      4       4.8318      0.00000
      5       5.0705      0.00000
      6       6.3932      0.00000
      7      21.8170      0.00000
      8      22.4594      0.00000
      9      22.4594      0.00000
     10      24.0374      0.00000
     11      32.6950      0.00000
     12      32.6950      0.00000

 k-point    19 :      -0.3125    0.3125    0.1875
  band No.  band energies     occupation 
      1       0.8802      1.00000
      2       3.8707      1.00558
      3       4.3426      0.37811
      4       5.0416      0.00000
      5       5.8491      0.00000
      6       6.6881      0.00000
      7      17.1269      0.00000
      8      20.0759      0.00000
      9      21.2762      0.00000
     10      24.6973      0.00000
     11      31.9549      0.00000
     12      33.3768      0.00000

 k-point    20 :      -0.4375    0.4375    0.1875
  band No.  band energies     occupation 
      1       2.1422      1.00000
      2       3.4253      1.00000
      3       4.1536      0.77332
      4       5.3121      0.00000
      5       6.6270      0.00000
      6       7.9463      0.00000
      7      12.7276      0.00000
      8      18.5793      0.00000
      9      20.5219      0.00000
     10      27.0688      0.00000
     11      31.1311      0.00000
     12      31.5883      0.00000

 k-point    21 :      -0.3125    0.4375    0.1875
  band No.  band energies     occupation 
      1       2.1634      1.00000
      2       3.2689      1.00084
      3       4.3870      0.33063
      4       5.3652      0.00000
      5       6.2524      0.00000
      6       7.9498      0.00000
      7      15.3127      0.00000
      8      15.5909      0.00000
      9      22.6249      0.00000
     10      23.7620      0.00000
     11      30.7322      0.00000
     12      33.2037      0.00000

 k-point    22 :      -0.4375   -0.4375    0.1875
  band No.  band energies     occupation 
      1       2.7385      1.00000
      2       3.0096      1.00000
      3       4.1582      0.63392
      4       5.6565      0.00000
      5       6.4474      0.00000
      6      10.1562      0.00000
      7      11.9710      0.00000
      8      14.7789      0.00000
      9      22.5738      0.00000
     10      25.4469      0.00000
     11      28.2800      0.00000
     12      32.3224      0.00000

 k-point    23 :      -0.3125    0.3125    0.3125
  band No.  band energies     occupation 
      1       1.9065      1.00000
      2       3.3670      1.00501
      3       5.1268     -0.10343
      4       5.1268      0.00000
      5       5.8997      0.00000
      6       7.4633      0.00000
      7      17.4157      0.00000
      8      17.4157      0.00000
      9      19.8802      0.00000
     10      21.2344      0.00000
     11      31.7748      0.00000
     12      36.5887      0.00000

 k-point    24 :      -0.4375    0.4375    0.3125
  band No.  band energies     occupation 
      1       2.4660      1.00000
      2       2.7940      1.00000
      3       5.2787     -0.11435
      4       5.5119      0.00000
      5       6.5258      0.00000
      6       9.6067      0.00000
      7      13.5893      0.00000
      8      15.7328      0.00000
      9      19.9242      0.00000
     10      22.3359      0.00000
     11      27.4349      0.00000
     12      36.0471      0.00000

 k-point    25 :      -0.4375   -0.4375    0.3125
  band No.  band energies     occupation 
      1       2.5268      1.00000
      2       2.5268      1.00000
      3       5.3345     -0.06305
      4       6.3526      0.00000
      5       6.3526      0.00000
      6      12.4099      0.00000
      7      12.4099      0.00000
      8      13.2001      0.00000
      9      21.2330      0.00000
     10      21.2330      0.00000
     11      24.9796      0.00000
     12      36.4926      0.00000

 k-point    26 :      -0.4375    0.4375    0.4375
  band No.  band energies     occupation 
      1       2.2969      1.00000
      2       2.3711      1.00000
      3       6.3069     -0.00049
      4       6.3069      0.00000
      5       6.5000      0.00000
      6      11.7146      0.00000
      7      13.8305      0.00000
      8      13.8305      0.00000
      9      19.1834      0.00000
     10      20.0407      0.00000
     11      23.6055      0.00000
     12      39.6561      0.00000


--------------------------------------------------------------------------------------------------------


 soft charge-density along one line, spin component           1
         0         1         2         3         4         5         6         7         8         9
 total charge-density along one line
 
 soft charge-density along one line, spin component           2
         0         1         2         3         4         5         6         7         8         9
 total charge-density along one line
 
 pseudopotential strength for first ion, spin component:           1
 -6.651  -0.000  -0.000  -0.000  -0.000  -7.152  -0.000  -0.000
 -0.000  -6.651   0.000  -0.000  -0.000  -0.000  -7.152   0.000
 -0.000   0.000  -6.775   0.000  -0.000  -0.000   0.000  -7.273
 -0.000  -0.000   0.000  -6.651   0.000  -0.000  -0.000   0.000
 -0.000  -0.000  -0.000   0.000  -6.775  -0.000  -0.000  -0.000
 -7.152  -0.000  -0.000  -0.000  -0.000  -7.612  -0.000  -0.000
 -0.000  -7.152   0.000  -0.000  -0.000  -0.000  -7.612   0.000
 -0.000   0.000  -7.273   0.000  -0.000  -0.000   0.000  -7.730
 -0.000  -0.000   0.000  -7.152   0.000  -0.000  -0.000   0.000
 -0.000  -0.000  -0.000   0.000  -7.273  -0.000  -0.000  -0.000
 -0.000  -0.000   0.000  -0.000  -0.000  -0.000  -0.000   0.000
 -0.000  -0.000   0.000  -0.000  -0.000  -0.000  -0.000   0.000
 -0.000  -0.000  -0.000   0.000  -0.000  -0.000  -0.000  -0.000
  0.000   0.000  -0.000  -0.000  -0.000   0.000   0.000  -0.000
  0.000   0.000   0.000  -0.000  -0.000   0.000   0.000   0.000
 -0.000  -0.000  -0.000   0.000  -0.000  -0.000  -0.000  -0.000
  0.000   0.000  -0.000  -0.000  -0.000   0.000   0.000  -0.000
  0.000   0.000   0.000  -0.000  -0.000   0.000   0.000   0.000
 pseudopotential strength for first ion, spin component:           2
 -4.882  -0.000   0.000  -0.000   0.000  -5.439  -0.000   0.000
 -0.000  -4.882  -0.000  -0.000   0.000  -0.000  -5.439  -0.000
  0.000  -0.000  -4.728  -0.000  -0.000   0.000  -0.000  -5.289
 -0.000  -0.000  -0.000  -4.882  -0.000  -0.000  -0.000  -0.000
  0.000   0.000  -0.000  -0.000  -4.728   0.000   0.000  -0.000
 -5.439  -0.000   0.000  -0.000   0.000  -5.954  -0.000   0.000
 -0.000  -5.439  -0.000  -0.000   0.000  -0.000  -5.954  -0.000
  0.000  -0.000  -5.289  -0.000  -0.000   0.000  -0.000  -5.806
 -0.000  -0.000  -0.000  -5.439  -0.000  -0.000  -0.000  -0.000
  0.000   0.000  -0.000  -0.000  -5.289   0.000   0.000  -0.000
  0.000   0.000  -0.000   0.000  -0.000   0.000   0.000  -0.000
  0.000   0.000  -0.000   0.000  -0.000   0.000   0.000  -0.000
 -0.000  -0.000  -0.000   0.000  -0.000  -0.000  -0.000  -0.000
  0.000   0.000  -0.000  -0.000   0.000   0.000   0.000  -0.000
  0.000   0.000   0.000  -0.000  -0.000   0.000   0.000   0.000
 -0.000  -0.000  -0.000   0.000  -0.000  -0.000  -0.000  -0.000
  0.000   0.000  -0.000  -0.000   0.000   0.000   0.000  -0.000
  0.000   0.000   0.000  -0.000  -0.000   0.000   0.000   0.000
 total augmentation occupancy for first ion, spin component:           1
  2.593   0.000   0.000   0.000  -0.000  -1.253  -0.000   0.000   0.000   0.000  -0.000   0.000   0.000   0.000   0.000   0.000
  0.000   2.593   0.000  -0.000  -0.000  -0.000  -1.253   0.000   0.000   0.000   0.000   0.000   0.000   0.000   0.000   0.000
  0.000  -0.000   3.218   0.000   0.000  -0.000   0.000  -1.792   0.000   0.000  -0.000   0.000   0.000   0.000   0.000   0.000
  0.000   0.000   0.000   2.593   0.000   0.000  -0.000  -0.000  -1.253  -0.000  -0.000  -0.000   0.000   0.000   0.000   0.000
  0.000   0.000   0.000   0.000   3.218   0.000  -0.000   0.000  -0.000  -1.792   0.000   0.000   0.000   0.000   0.000   0.000
 -1.253  -0.000  -0.000  -0.000  -0.000   1.305   0.000   0.000  -0.000   0.000   0.000   0.000   0.000   0.000   0.000   0.000
  0.000  -1.253  -0.000   0.000  -0.000   0.000   1.305   0.000   0.000  -0.000  -0.000   0.000   0.000   0.000   0.000   0.000
  0.000  -0.000  -1.792  -0.000   0.000   0.000  -0.000   1.615  -0.000   0.000   0.000   0.000   0.000   0.000   0.000   0.000
  0.000   0.000  -0.000  -1.253   0.000  -0.000   0.000  -0.000   1.305   0.000   0.000   0.000   0.000   0.000   0.000   0.000
  0.000   0.000   0.000  -0.000  -1.792  -0.000   0.000   0.000  -0.000   1.615   0.000   0.000   0.000   0.000   0.000   0.000
 -0.000   0.000   0.000  -0.000   0.000   0.000  -0.000   0.000   0.000   0.000   2.012  -0.217   0.000   0.000   0.000   0.000
  0.000   0.000  -0.000  -0.000   0.000   0.000   0.000  -0.000  -0.000   0.000  -0.217   0.028   0.000   0.000   0.000   0.000
  0.000   0.000   0.000   0.000   0.000   0.000   0.000   0.000   0.000   0.000   0.000   0.000   0.221  -0.000   0.000  -0.019
  0.000   0.000   0.000   0.000   0.000   0.000   0.000   0.000   0.000   0.000   0.000   0.000   0.000   0.221   0.000   0.000
  0.000   0.000   0.000   0.000   0.000   0.000   0.000   0.000   0.000   0.000   0.000   0.000  -0.000   0.000   0.221  -0.000
  0.000   0.000   0.000   0.000   0.000   0.000   0.000   0.000   0.000   0.000   0.000   0.000  -0.019   0.000   0.000   0.002
  0.000   0.000   0.000   0.000   0.000   0.000   0.000   0.000   0.000   0.000   0.000   0.000   0.000  -0.019  -0.000  -0.000
  0.000   0.000   0.000   0.000   0.000   0.000   0.000   0.000   0.000   0.000   0.000   0.000  -0.000   0.000  -0.019   0.000
 total augmentation occupancy for first ion, spin component:           2
  2.364   0.000   0.000   0.000   0.000  -1.022   0.000  -0.000   0.000  -0.000   0.000   0.000   0.000   0.000   0.000   0.000
 -0.000   2.364   0.000   0.000  -0.000   0.000  -1.022  -0.000  -0.000   0.000   0.000  -0.000   0.000   0.000   0.000   0.000
  0.000   0.000   2.936  -0.000   0.000   0.000   0.000  -1.250   0.000   0.000   0.000  -0.000   0.000   0.000   0.000   0.000
  0.000   0.000   0.000   2.364   0.000  -0.000  -0.000   0.000  -1.022   0.000   0.000   0.000   0.000   0.000   0.000   0.000
  0.000  -0.000   0.000  -0.000   2.936   0.000   0.000   0.000   0.000  -1.250   0.000   0.000   0.000   0.000   0.000   0.000
 -1.022  -0.000   0.000   0.000   0.000   0.211  -0.000   0.000   0.000   0.000   0.000  -0.000   0.000   0.000   0.000   0.000
 -0.000  -1.022   0.000   0.000  -0.000  -0.000   0.211   0.000  -0.000  -0.000   0.000  -0.000   0.000   0.000   0.000   0.000
  0.000  -0.000  -1.250  -0.000   0.000   0.000  -0.000   0.301   0.000   0.000  -0.000   0.000   0.000   0.000   0.000   0.000
  0.000  -0.000   0.000  -1.022   0.000   0.000  -0.000   0.000   0.211   0.000   0.000  -0.000   0.000   0.000   0.000   0.000
  0.000   0.000   0.000  -0.000  -1.250   0.000   0.000  -0.000  -0.000   0.301  -0.000  -0.000   0.000   0.000   0.000   0.000
 -0.000   0.000   0.000   0.000   0.000  -0.000  -0.000  -0.000   0.000  -0.000  -0.343   0.098   0.000   0.000   0.000   0.000
  0.000   0.000  -0.000   0.000   0.000  -0.000   0.000   0.000  -0.000   0.000   0.098  -0.016   0.000   0.000   0.000   0.000
  0.000   0.000   0.000   0.000   0.000   0.000   0.000   0.000   0.000   0.000   0.000   0.000  -0.043   0.000   0.000   0.006
  0.000   0.000   0.000   0.000   0.000   0.000   0.000   0.000   0.000   0.000   0.000   0.000   0.000  -0.043   0.000  -0.000
  0.000   0.000   0.000   0.000   0.000   0.000   0.000   0.000   0.000   0.000   0.000   0.000   0.000   0.000  -0.043   0.000
  0.000   0.000   0.000   0.000   0.000   0.000   0.000   0.000   0.000   0.000   0.000   0.000   0.006   0.000   0.000  -0.001
  0.000   0.000   0.000   0.000   0.000   0.000   0.000   0.000   0.000   0.000   0.000   0.000   0.000   0.006  -0.000  -0.000
  0.000   0.000   0.000   0.000   0.000   0.000   0.000   0.000   0.000   0.000   0.000   0.000   0.000   0.000   0.006   0.000


------------------------ aborting loop because EDIFF is reached ----------------------------------------


 


 total charge     
 
# of ion     s       p       d       tot
----------------------------------------
  1        0.420   0.408   6.136   6.963
 


 magnetization (x)
 
# of ion     s       p       d       tot
----------------------------------------
  1       -0.018  -0.071   2.649   2.560
 
    CHARGE:  cpu time    0.0330: real time    0.0202
    FORLOC:  cpu time    0.0010: real time    0.0003
    FORNL :  cpu time    0.0650: real time    0.0389
    STRESS:  cpu time    0.2070: real time    0.1327
    FORCOR:  cpu time    0.0630: real time    0.0390
    FORHAR:  cpu time    0.0040: real time    0.0019
    MIXING:  cpu time    0.0090: real time    0.0046
    OFIELD:  cpu time    0.0000: real time    0.0000

  FORCE on cell =-STRESS in cart. coord.  units (eV):
  Direction    XX          YY          ZZ          XY          YZ          ZX
  --------------------------------------------------------------------------------------
  Alpha Z    51.19539    51.19539    51.19539
  Ewald    -186.32599  -186.32599  -186.32599    -0.00000     0.00000    -0.00000
  Hartree    36.25664    36.25664    36.25664    -0.00000    -0.00000    -0.00000
  E(xc)     -39.40175   -39.40175   -39.40175    -0.00000    -0.00000    -0.00000
  Local      53.77269    53.77269    53.77269    -0.00002    -0.00002    -0.00002
  n-local   -27.91413   -27.12570   -26.50074     1.28078    -0.72469    -1.17057
  augment    39.05995    39.05995    39.05995     0.00001     0.00001     0.00001
  Kinetic    71.38744    70.78708    70.55165    -2.77975     1.89546     1.22608
  Fock        0.00000     0.00000     0.00000     0.00000     0.00000     0.00000
  -------------------------------------------------------------------------------------
  Total      -1.71455    -1.71455    -1.71455    -0.00000    -0.00000    -0.00000
  in kB    -203.48213  -203.48213  -203.48213    -0.00000    -0.00000    -0.00000
  external pressure =     -203.48 kB  Pullay stress =        0.00 kB


 VOLUME and BASIS-vectors are now :
 -----------------------------------------------------------------------------
  energy-cutoff  :      400.00
  volume of cell :       13.50
      direct lattice vectors                 reciprocal lattice vectors
    -1.500000000  1.500000000  1.500000000     0.000000000  0.333333333  0.333333333
     1.500000000 -1.500000000  1.500000000     0.333333333  0.000000000  0.333333333
     1.500000000  1.500000000 -1.500000000     0.333333333  0.333333333  0.000000000

  length of vectors
     2.598076211  2.598076211  2.598076211     0.471404521  0.471404521  0.471404521


 FORCES acting on ions
    electron-ion (+dipol)            ewald-force                    non-local-force                 convergence-correction
 -----------------------------------------------------------------------------------------------
   0.228E-14 -.757E-14 0.305E-13   0.327E-15 0.197E-14 0.229E-15   0.155E-24 -.517E-25 -.517E-25   -.700E-14 -.323E-14 0.219E-13
 -----------------------------------------------------------------------------------------------
   0.228E-14 -.757E-14 0.305E-13   0.327E-15 0.197E-14 0.229E-15   0.155E-24 -.517E-25 -.517E-25   -.700E-14 -.323E-14 0.219E-13
 
 
 POSITION                                       TOTAL-FORCE (eV/Angst)
 -----------------------------------------------------------------------------------
      0.00000      0.00000      0.00000         0.000000      0.000000      0.000000
 -----------------------------------------------------------------------------------
    total drift:                               -0.000000     -0.000000      0.000000


--------------------------------------------------------------------------------------------------------



  FREE ENERGIE OF THE ION-ELECTRON SYSTEM (eV)
  ---------------------------------------------------
  free  energy   TOTEN  =        -8.08561374 eV

  energy  without entropy=       -8.08561374  energy(sigma->0) =       -8.08561374
 


--------------------------------------------------------------------------------------------------------


    POTLOK:  cpu time    0.0810: real time    0.0546


--------------------------------------------------------------------------------------------------------


 writing wavefunctions
     LOOP+:  cpu time   63.9503: real time   40.6670
    4ORBIT:  cpu time    0.0000: real time    0.0000
 


 total charge     
 
# of ion     s       p       d       tot
----------------------------------------
  1        0.420   0.408   6.136   6.963
 


 magnetization (x)
 
# of ion     s       p       d       tot
----------------------------------------
  1       -0.018  -0.071   2.649   2.560
 
 BZINTS: Fermi energy:  4.257398;  8.000000 electrons
         Band energy:  18.638454;  BLOECHL correction: -0.059896

 total amount of memory used by VASP on root node    33448. kBytes
========================================================================

   base      :      30000. kBytes
   nonl-proj :        947. kBytes
   fftplans  :        439. kBytes
   grid      :       1353. kBytes
   one-center:         31. kBytes
   wavefun   :        678. kBytes
 
  
  
 General timing and accounting informations for this job:
 ========================================================
  
                  Total CPU time used (sec):       64.762
                            User time (sec):       59.710
                          System time (sec):        5.052
                         Elapsed time (sec):       42.455
  
                   Maximum memory used (kb):       35968.
                   Average memory used (kb):           0.
  
                          Minor page faults:        21139
                          Major page faults:            5
                 Voluntary context switches:          810
