 running on    4 total cores
 distrk:  each k-point on    4 cores,    1 groups
 distr:  one band on    1 cores,    4 groups
 using from now: INCAR     
 vasp.5.4.1 24Jun15 (build Jul 19 2016 16:50:41) complex                        
  
 POSCAR found type information on POSCAR  Fe
 POSCAR found :  1 types and       1 ions
 LDA part: xc-table for Pade appr. of Perdew
 POSCAR, INCAR and KPOINTS ok, starting setup
 FFT: planning ...
 WAVECAR not read
 entering main loop
       N       E                     dE             d eps       ncg     rms          rms(c)
DAV:   1     0.172443981863E+02    0.17244E+02   -0.35653E+03  1364   0.681E+02
DAV:   2    -0.805862004067E+01   -0.25303E+02   -0.23180E+02  1304   0.113E+02
DAV:   3    -0.869558563907E+01   -0.63697E+00   -0.63644E+00  1456   0.210E+01
DAV:   4    -0.869799490812E+01   -0.24093E-02   -0.24201E-02  1428   0.116E+00
DAV:   5    -0.869801171259E+01   -0.16804E-04   -0.16865E-04  1408   0.102E-01    0.102E+01
DAV:   6    -0.824158875997E+01    0.45642E+00   -0.12134E+01  1404   0.428E+01    0.704E+00
DAV:   7    -0.809411748194E+01    0.14747E+00   -0.12045E+00  1452   0.128E+01    0.363E+00
DAV:   8    -0.809027642611E+01    0.38411E-02   -0.14782E-02  1536   0.876E-01    0.133E+00
DAV:   9    -0.808579953210E+01    0.44769E-02   -0.19081E-02  1496   0.999E-01    0.329E-01
DAV:  10    -0.808558996968E+01    0.20956E-03   -0.18547E-03  1408   0.430E-01    0.645E-02
DAV:  11    -0.808555990629E+01    0.30063E-04   -0.45006E-04  1620   0.189E-01    0.600E-02
DAV:  12    -0.808558615668E+01   -0.26250E-04   -0.10908E-05  1404   0.390E-02    0.229E-02
DAV:  13    -0.808560870150E+01   -0.22545E-04   -0.12864E-05  1348   0.265E-02    0.915E-03
DAV:  14    -0.808561369567E+01   -0.49942E-05   -0.78615E-07   716   0.897E-03    0.326E-03
DAV:  15    -0.808561532494E+01   -0.16293E-05   -0.21878E-08   648   0.137E-03    0.148E-03
DAV:  16    -0.808561397370E+01    0.13512E-05   -0.23632E-08   644   0.130E-03    0.307E-04
DAV:  17    -0.808561374256E+01    0.23114E-06   -0.14676E-09   640   0.318E-04
   1 F= -.80856137E+01 E0= -.80856137E+01  d E =0.000000E+00  mag=     2.5114
 writing wavefunctions
