Si beta-tin                             
   2.80000000000000     
     1.005308    0.000000    0.000000
    -0.502654    0.870622   -0.000000
     0.000000    0.000000    1.615792
    S
     2
Direct
  0.000000  0.000000  0.000000
  0.333333  0.666667  0.500000
 
   40   40   64
 -5.0359     -4.6027     -3.3534     -1.4312     0.94820      3.5284      6.0493      8.2827      10.059      11.283    
  11.936      12.066      11.777      11.206      10.503      9.8026      9.1684      8.6367      8.2364      7.9880    
  7.9039      7.9880      8.2364      8.6367      9.1684      9.8026      10.503      11.206      11.777      12.066    
  11.936      11.283      10.059      8.2827      6.0493      3.5284     0.94820     -1.4312     -3.3534     -4.6027    
 -4.6027     -4.6027     -3.7606     -2.1740     -.24090E-01  2.4512      4.9919      7.3528      9.3351      10.808    
  11.715      12.075      11.965      11.508      10.849      10.134      9.4631      8.8777      8.4101      8.0848    
  7.9181      7.9181      8.0848      8.4101      8.8777      9.4631      10.134      10.849      11.508      11.965    
  12.075      11.715      10.808      9.3351      7.3528      4.9919      2.4512     -.24089E-01 -2.1740     -3.7606    
 -3.3534     -3.7626     -3.3534     -2.1740     -.36205      1.8761      4.2955      6.6488      8.7195      10.348    
  11.447      12.001      12.060      11.725      11.131      10.423      9.7269      9.0985      8.5728      8.1776    
  7.9327      7.8497      7.9327      8.1776      8.5728      9.0985      9.7269      10.423      11.131      11.725    
  12.060      12.001      11.447      10.348      8.7195      6.6488      4.2955      1.8761     -.36205     -2.1740    
 -1.4312     -2.1795     -2.1795     -1.4312     -.24091E-01  1.8761      4.0525      6.2697      8.3071      9.9876    
  11.196      11.889      12.086      11.867      11.347      10.665      9.9540      9.2935      8.7201      8.2637    
  7.9470      7.7850      7.7850      7.9470      8.2637      8.7201      9.2935      9.9540      10.665      11.347    
  11.867      12.086      11.889      11.196      9.9876      8.3071      6.2697      4.0525      1.8761     -.24089E-01
 0.94820     -.34123E-01 -.37563     -.34124E-01 0.94820      2.4512      4.2955      6.2697      8.1621      9.7894    
  11.020      11.783      12.075      11.948      11.500      10.853      10.141      9.4588      8.8483      8.3407    
  7.9608      7.7261      7.6467      7.7261      7.9608      8.3407      8.8483      9.4588      10.141      10.853    
  11.500      11.948      12.075      11.783      11.020      9.7894      8.1621      6.2697      4.2955      2.4512    
  3.5284      2.4364      1.8532      1.8532      2.4364      3.5284      4.9919      6.6488      8.3071      9.7894    
  10.956      11.720      12.055      11.989      11.598      10.990      10.286      9.5920      8.9550      8.4069    
  7.9737      7.6744      7.5217      7.5217      7.6744      7.9737      8.4069      8.9550      9.5920      10.286    
  10.990      11.598      11.989      12.055      11.720      10.956      9.7894      8.3071      6.6488      4.9919    
  6.0493      4.9729      4.2636      4.0161      4.2636      4.9729      6.0493      7.3528      8.7195      9.9876    
  11.020      11.720      12.046      12.005      11.652      11.077      10.389      9.6919      9.0387      8.4610    
  7.9850      7.6311      7.4134      7.3399      7.4134      7.6311      7.9850      8.4610      9.0387      9.6919    
  10.389      11.077      11.652      12.005      12.046      11.720      11.020      9.9876      8.7195      7.3528    
  8.2827      7.3304      6.6092      6.2209      6.2209      6.6092      7.3304      8.2827      9.3351      10.348    
  11.196      11.783      12.055      12.005      11.669      11.120      10.450      9.7583      9.0986      8.5020    
  7.9945      7.5968      7.3237      7.1849      7.1849      7.3237      7.5968      7.9945      8.5020      9.0986    
  9.7583      10.450      11.120      11.669      12.005      12.055      11.783      11.196      10.348      9.3351    
  10.059      9.3105      8.6744      8.2483      8.0985      8.2483      8.6744      9.3105      10.059      10.808    
  11.447      11.889      12.075      11.989      11.652      11.120      10.471      9.7914      9.1345      8.5295    
  8.0016      7.5714      7.2540      7.0597      6.9944      7.0597      7.2540      7.5714      8.0016      8.5295    
  9.1345      9.7914      10.471      11.120      11.652      11.989      12.075      11.889      11.447      10.808    
  11.283      10.782      10.300      9.9217      9.7144      9.7144      9.9217      10.300      10.782      11.283    
  11.715      12.001      12.086      11.948      11.598      11.077      10.450      9.7914      9.1465      8.5433    
  8.0061      7.5548      7.2045      6.9657      6.8447      6.8447      6.9657      7.2045      7.5548      8.0061    
  8.5433      9.1465      9.7914      10.450      11.077      11.598      11.948      12.086      12.001      11.715    
  11.936      11.689      11.397      11.126      10.937      10.868      10.937      11.126      11.397      11.689    
  11.936      12.075      12.060      11.867      11.500      10.990      10.389      9.7583      9.1345      8.5433    
  8.0076      7.5466      7.1750      6.9031      6.7376      6.6821      6.7376      6.9031      7.1750      7.5466    
  8.0076      8.5433      9.1345      9.7583      10.389      10.990      11.500      11.867      12.060      12.075    
  12.066      12.049      11.950      11.816      11.695      11.624      11.624      11.695      11.816      11.950    
  12.049      12.066      11.965      11.725      11.347      10.853      10.286      9.6919      9.0986      8.5295    
  8.0061      7.5466      7.1652      6.8719      6.6734      6.5733      6.5733      6.6734      6.8719      7.1652    
  7.5466      8.0061      8.5295      9.0986      9.6919      10.286      10.853      11.347      11.725      11.965    
  11.777      11.939      12.008      12.013      11.984      11.953      11.940      11.953      11.984      12.013    
  12.008      11.939      11.777      11.508      11.131      10.665      10.141      9.5920      9.0387      8.5020    
  8.0016      7.5548      7.1750      6.8719      6.6520      6.5189      6.4744      6.5189      6.6520      6.8719    
  7.1750      7.5548      8.0016      8.5020      9.0387      9.5920      10.141      10.665      11.131      11.508    
  11.206      11.482      11.674      11.792      11.855      11.882      11.891      11.891      11.882      11.855    
  11.792      11.674      11.482      11.206      10.849      10.423      9.9540      9.4588      8.9550      8.4610    
  7.9945      7.5714      7.2045      6.9031      6.6734      6.5189      6.4413      6.4413      6.5189      6.6734    
  6.9031      7.2045      7.5714      7.9945      8.4610      8.9550      9.4588      9.9540      10.423      10.849    
  10.503      10.822      11.079      11.272      11.405      11.488      11.533      11.546      11.533      11.488    
  11.405      11.272      11.079      10.822      10.503      10.134      9.7269      9.2935      8.8483      8.4069    
  7.9850      7.5968      7.2540      6.9657      6.7376      6.5733      6.4744      6.4413      6.4744      6.5733    
  6.7376      6.9657      7.2540      7.5968      7.9850      8.4069      8.8483      9.2935      9.7269      10.134    
  9.8026      10.107      10.371      10.589      10.757      10.877      10.953      10.989      10.989      10.953    
  10.877      10.757      10.589      10.371      10.107      9.8026      9.4632      9.0985      8.7201      8.3408    
  7.9737      7.6311      7.3237      7.0597      6.8447      6.6821      6.5733      6.5189      6.5189      6.5733    
  6.6821      6.8447      7.0597      7.3237      7.6311      7.9737      8.3407      8.7201      9.0985      9.4631    
  9.1684      9.4362      9.6740      9.8772      10.043      10.170      10.260      10.313      10.330      10.313    
  10.260      10.170      10.043      9.8772      9.6740      9.4362      9.1684      8.8777      8.5728      8.2637    
  7.9608      7.6744      7.4133      7.1849      6.9943      6.8447      6.7376      6.6734      6.6520      6.6734    
  6.7376      6.8447      6.9944      7.1849      7.4134      7.6744      7.9608      8.2637      8.5728      8.8777    
  8.6367      8.8504      9.0449      9.2155      9.3590      9.4735      9.5586      9.6147      9.6425      9.6425    
  9.6147      9.5586      9.4735      9.3590      9.2155      9.0450      8.8504      8.6367      8.4101      8.1776    
  7.9470      7.7261      7.5217      7.3399      7.1849      7.0597      6.9657      6.9031      6.8719      6.8719    
  6.9031      6.9657      7.0597      7.1849      7.3399      7.5217      7.7261      7.9470      8.1776      8.4101    
  8.2364      8.3825      8.5187      8.6411      8.7468      8.8340      8.9017      8.9497      8.9782      8.9877    
  8.9782      8.9497      8.9017      8.8340      8.7468      8.6411      8.5187      8.3825      8.2364      8.0848    
  7.9326      7.7850      7.6467      7.5217      7.4133      7.3237      7.2540      7.2045      7.1750      7.1652    
  7.1750      7.2045      7.2540      7.3237      7.4134      7.5217      7.6467      7.7850      7.9327      8.0848    
  7.9880      8.0571      8.1230      8.1839      8.2379      8.2839      8.3208      8.3485      8.3668      8.3759    
  8.3759      8.3668      8.3485      8.3208      8.2839      8.2379      8.1839      8.1230      8.0571      7.9880    
  7.9181      7.8497      7.7850      7.7261      7.6744      7.6311      7.5968      7.5714      7.5548      7.5466    
  7.5466      7.5548      7.5714      7.5968      7.6311      7.6744      7.7261      7.7850      7.8497      7.9181    
  7.9039      7.8903      7.8778      7.8667      7.8571      7.8490      7.8425      7.8374      7.8338      7.8316    
  7.8309      7.8316      7.8338      7.8374      7.8425      7.8490      7.8571      7.8667      7.8778      7.8903    
  7.9039      7.9181      7.9326      7.9470      7.9608      7.9737      7.9850      7.9945      8.0016      8.0061    
  8.0076      8.0061      8.0016      7.9945      7.9850      7.9737      7.9608      7.9470      7.9327      7.9181    
  7.9880      7.8903      7.7948      7.7044      7.6217      7.5487      7.4869      7.4370      7.3996      7.3747    
  7.3623      7.3623      7.3747      7.3996      7.4370      7.4869      7.5487      7.6217      7.7044      7.7948    
  7.8903      7.9880      8.0848      8.1776      8.2637      8.3408      8.4069      8.4610      8.5020      8.5295    
  8.5433      8.5433      8.5295      8.5020      8.4610      8.4069      8.3407      8.2637      8.1776      8.0848    
  8.2364      8.0571      7.8778      7.7044      7.5421      7.3955      7.2681      7.1623      7.0795      7.0203    
  6.9849      6.9731      6.9849      7.0203      7.0795      7.1623      7.2681      7.3955      7.5421      7.7044    
  7.8778      8.0571      8.2364      8.4101      8.5728      8.7201      8.8483      8.9550      9.0387      9.0986    
  9.1345      9.1465      9.1345      9.0986      9.0387      8.9550      8.8483      8.7201      8.5728      8.4101    
  8.6367      8.3825      8.1230      7.8667      7.6217      7.3955      7.1943      7.0226      6.8836      6.7788    
  6.7089      6.6740      6.6740      6.7089      6.7788      6.8836      7.0226      7.1943      7.3955      7.6217    
  7.8667      8.1230      8.3825      8.6367      8.8777      9.0985      9.2935      9.4588      9.5920      9.6919    
  9.7583      9.7914      9.7914      9.7583      9.6919      9.5920      9.4588      9.2935      9.0985      8.8777    
  9.1684      8.8504      8.5187      8.1839      7.8571      7.5487      7.2681      7.0226      6.8177      6.6566    
  6.5411      6.4717      6.4486      6.4717      6.5411      6.6566      6.8177      7.0226      7.2681      7.5487    
  7.8571      8.1839      8.5187      8.8504      9.1684      9.4632      9.7269      9.9540      10.141      10.286    
  10.389      10.450      10.471      10.450      10.389      10.286      10.141      9.9540      9.7269      9.4631    
  9.8026      9.4362      9.0450      8.6411      8.2379      7.8490      7.4869      7.1623      6.8836      6.6566    
  6.4848      6.3697      6.3122      6.3122      6.3697      6.4848      6.6566      6.8836      7.1623      7.4869    
  7.8490      8.2379      8.6411      9.0450      9.4362      9.8026      10.134      10.423      10.665      10.853    
  10.990      11.077      11.120      11.120      11.077      10.990      10.853      10.665      10.423      10.134    
  10.503      10.107      9.6740      9.2155      8.7468      8.2839      7.8425      7.4370      7.0795      6.7788    
  6.5411      6.3697      6.2665      6.2321      6.2665      6.3697      6.5411      6.7788      7.0795      7.4370    
  7.8425      8.2839      8.7468      9.2155      9.6740      10.107      10.503      10.849      11.131      11.347    
  11.500      11.598      11.652      11.669      11.652      11.598      11.500      11.347      11.131      10.849    
  11.206      10.822      10.371      9.8772      9.3590      8.8340      8.3208      7.8374      7.3996      7.0203    
  6.7089      6.4717      6.3122      6.2321      6.2321      6.3122      6.4717      6.7089      7.0203      7.3996    
  7.8374      8.3208      8.8340      9.3590      9.8772      10.371      10.822      11.206      11.508      11.725    
  11.867      11.948      11.989      12.005      12.005      11.989      11.948      11.867      11.725      11.508    
  11.777      11.482      11.079      10.589      10.043      9.4735      8.9017      8.3485      7.8338      7.3747    
  6.9849      6.6740      6.4486      6.3122      6.2665      6.3122      6.4486      6.6740      6.9849      7.3747    
  7.8338      8.3485      8.9017      9.4735      10.043      10.589      11.079      11.482      11.777      11.965    
  12.060      12.086      12.075      12.055      12.046      12.055      12.075      12.086      12.060      11.965    
  12.066      11.939      11.674      11.272      10.757      10.170      9.5586      8.9497      8.3668      7.8316    
  7.3623      6.9731      6.6740      6.4717      6.3697      6.3697      6.4717      6.6740      6.9731      7.3623    
  7.8316      8.3668      8.9497      9.5586      10.170      10.757      11.272      11.674      11.939      12.066    
  12.075      12.001      11.889      11.783      11.720      11.720      11.783      11.889      12.001      12.075    
  11.936      12.049      12.008      11.792      11.405      10.877      10.260      9.6147      8.9782      8.3759    
  7.8309      7.3623      6.9849      6.7089      6.5411      6.4848      6.5411      6.7089      6.9849      7.3623    
  7.8309      8.3759      8.9782      9.6147      10.260      10.877      11.405      11.792      12.008      12.049    
  11.936      11.715      11.447      11.196      11.020      10.956      11.020      11.196      11.447      11.715    
  11.283      11.689      11.950      12.013      11.855      11.488      10.953      10.313      9.6425      8.9877    
  8.3759      7.8316      7.3747      7.0203      6.7788      6.6566      6.6566      6.7788      7.0203      7.3747    
  7.8316      8.3759      8.9877      9.6425      10.313      10.953      11.488      11.855      12.013      11.950    
  11.689      11.283      10.808      10.348      9.9876      9.7894      9.7894      9.9876      10.348      10.808    
  10.059      10.782      11.397      11.816      11.984      11.882      11.533      10.989      10.330      9.6425    
  8.9782      8.3668      7.8338      7.3996      7.0795      6.8836      6.8177      6.8836      7.0795      7.3996    
  7.8338      8.3668      8.9782      9.6425      10.330      10.989      11.533      11.882      11.984      11.816    
  11.397      10.782      10.059      9.3351      8.7195      8.3071      8.1621      8.3071      8.7195      9.3351    
  8.2827      9.3105      10.300      11.126      11.695      11.953      11.891      11.546      10.989      10.313    
  9.6147      8.9497      8.3485      7.8374      7.4370      7.1623      7.0226      7.0226      7.1623      7.4370    
  7.8374      8.3485      8.9497      9.6147      10.313      10.989      11.546      11.891      11.953      11.695    
  11.126      10.300      9.3105      8.2827      7.3528      6.6488      6.2697      6.2697      6.6488      7.3528    
  6.0493      7.3304      8.6744      9.9217      10.937      11.624      11.940      11.891      11.533      10.953    
  10.260      9.5586      8.9017      8.3208      7.8425      7.4869      7.2681      7.1943      7.2681      7.4869    
  7.8425      8.3208      8.9017      9.5586      10.260      10.953      11.533      11.891      11.940      11.624    
  10.937      9.9217      8.6744      7.3304      6.0493      4.9919      4.2955      4.0525      4.2955      4.9919    
  3.5284      4.9729      6.6092      8.2483      9.7144      10.868      11.624      11.953      11.882      11.488    
  10.877      10.170      9.4735      8.8340      8.2839      7.8490      7.5487      7.3955      7.3955      7.5487    
  7.8490      8.2839      8.8340      9.4735      10.170      10.877      11.488      11.882      11.953      11.624    
  10.868      9.7144      8.2483      6.6092      4.9729      3.5284      2.4512      1.8761      1.8761      2.4512    
 0.94820      2.4364      4.2636      6.2209      8.0985      9.7144      10.937      11.695      11.984      11.855    
  11.405      10.757      10.043      9.3590      8.7468      8.2379      7.8571      7.6217      7.5421      7.6217    
  7.8571      8.2379      8.7468      9.3590      10.043      10.757      11.405      11.855      11.984      11.695    
  10.937      9.7144      8.0985      6.2209      4.2636      2.4364     0.94820     -.24091E-01 -.36205     -.24090E-01
 -1.4312     -.34122E-01  1.8532      4.0161      6.2209      8.2483      9.9217      11.126      11.816      12.013    
  11.792      11.272      10.589      9.8772      9.2155      8.6411      8.1839      7.8667      7.7044      7.7044    
  7.8667      8.1839      8.6411      9.2155      9.8772      10.589      11.272      11.792      12.013      11.816    
  11.126      9.9217      8.2483      6.2209      4.0161      1.8532     -.34124E-01 -1.4312     -2.1740     -2.1740    
 -3.3534     -2.1795     -.37563      1.8532      4.2636      6.6092      8.6744      10.300      11.397      11.950    
  12.008      11.674      11.079      10.371      9.6740      9.0450      8.5187      8.1230      7.8778      7.7948    
  7.8778      8.1230      8.5187      9.0449      9.6740      10.371      11.079      11.674      12.008      11.950    
  11.397      10.300      8.6744      6.6092      4.2636      1.8532     -.37563     -2.1795     -3.3534     -3.7606    
 -4.6027     -3.7626     -2.1795     -.34122E-01  2.4364      4.9729      7.3304      9.3105      10.782      11.689    
  12.049      11.939      11.482      10.822      10.107      9.4362      8.8504      8.3825      8.0571      7.8903    
  7.8903      8.0571      8.3825      8.8504      9.4362      10.107      10.822      11.482      11.939      12.049    
  11.689      10.782      9.3105      7.3304      4.9729      2.4364     -.34123E-01 -2.1795     -3.7626     -4.6027    
 -4.5793     -4.1554     -2.9327     -1.0524      1.2737      3.7939      6.2529      8.4268      10.150      11.329    
  11.946      12.051      11.746      11.166      10.461      9.7620      9.1297      8.6001      8.2015      7.9543    
  7.8705      7.9543      8.2015      8.6001      9.1297      9.7620      10.461      11.166      11.746      12.051    
  11.946      11.329      10.150      8.4268      6.2529      3.7939      1.2737     -1.0524     -2.9327     -4.1554    
 -4.1554     -4.1554     -3.3313     -1.7793     0.32290      2.7414      5.2211      7.5213      9.4475      10.871    
  11.739      12.069      11.939      11.470      10.805      10.091      9.4221      8.8387      8.3730      8.0492    
  7.8834      7.8834      8.0492      8.3730      8.8387      9.4221      10.091      10.806      11.470      11.939    
  12.069      11.739      10.871      9.4475      7.5213      5.2211      2.7414     0.32290     -1.7793     -3.3313    
 -2.9327     -3.3330     -2.9327     -1.7793     -.76786E-02  2.1792      4.5411      6.8351      8.8491      10.427    
  11.483      12.004      12.039      11.689      11.088      10.379      9.6839      9.0574      8.5338      8.1404    
  7.8966      7.8141      7.8966      8.1404      8.5338      9.0574      9.6839      10.379      11.088      11.689    
  12.039      12.004      11.483      10.427      8.8491      6.8351      4.5411      2.1792     -.76765E-02 -1.7793    
 -1.0524     -1.7841     -1.7841     -1.0524     0.32290      2.1792      4.3037      6.4654      8.4478      10.078    
  11.243      11.900      12.071      11.834      11.305      10.619      9.9094      9.2507      8.6794      8.2250    
  7.9098      7.7486      7.7486      7.9098      8.2250      8.6794      9.2507      9.9094      10.619      11.305    
  11.834      12.071      11.900      11.243      10.078      8.4478      6.4654      4.3037      2.1792     0.32290    
  1.2737     0.31414     -.19548E-01 0.31413      1.2737      2.7414      4.5411      6.4654      8.3066      9.8854    
  11.072      11.800      12.065      11.919      11.459      10.807      10.095      9.4146      8.8062      8.3008    
  7.9227      7.6891      7.6101      7.6891      7.9227      8.3008      8.8062      9.4146      10.095      10.807    
  11.459      11.919      12.065      11.800      11.072      9.8854      8.3066      6.4654      4.5411      2.7414    
  3.7939      2.7285      2.1592      2.1592      2.7285      3.7939      5.2211      6.8351      8.4478      9.8854    
  11.011      11.740      12.047      11.962      11.558      10.944      10.239      9.5467      8.9118      8.3659    
  7.9346      7.6369      7.4850      7.4850      7.6369      7.9346      8.3659      8.9118      9.5467      10.239    
  10.944      11.558      11.962      12.047      11.740      11.011      9.8854      8.4478      6.8351      5.2211    
  6.2529      5.2043      4.5131      4.2718      4.5131      5.2043      6.2529      7.5213      8.8491      10.078    
  11.072      11.740      12.039      11.979      11.613      11.031      10.342      9.6458      8.9946      8.4191    
  7.9453      7.5932      7.3766      7.3035      7.3766      7.5932      7.9453      8.4191      8.9946      9.6458    
  10.342      11.031      11.613      11.979      12.039      11.740      11.072      10.078      8.8491      7.5213    
  8.4268      7.5016      6.8003      6.4224      6.4224      6.8003      7.5016      8.4268      9.4475      10.427    
  11.243      11.800      12.047      11.979      11.630      11.074      10.403      9.7117      9.0539      8.4595    
  7.9543      7.5585      7.2869      7.1489      7.1489      7.2869      7.5585      7.9543      8.4595      9.0539    
  9.7117      10.403      11.074      11.630      11.979      12.047      11.800      11.243      10.427      9.4475    
  10.150      9.4257      8.8093      8.3960      8.2506      8.3960      8.8093      9.4257      10.150      10.871    
  11.484      11.900      12.065      11.962      11.613      11.074      10.423      9.7445      9.0894      8.4866    
  7.9610      7.5329      7.2172      7.0240      6.9590      7.0240      7.2172      7.5329      7.9610      8.4866    
  9.0894      9.7445      10.423      11.074      11.613      11.962      12.065      11.900      11.483      10.871    
  11.329      10.848      10.384      10.020      9.8192      9.8192      10.020      10.384      10.848      11.329    
  11.739      12.004      12.071      11.919      11.558      11.031      10.403      9.7445      9.1013      8.5002    
  7.9653      7.5161      7.1677      6.9302      6.8100      6.8100      6.9302      7.1677      7.5161      7.9653    
  8.5002      9.1013      9.7445      10.403      11.031      11.558      11.919      12.071      12.004      11.739    
  11.946      11.716      11.439      11.181      10.999      10.934      10.999      11.181      11.439      11.716    
  11.946      12.069      12.039      11.834      11.459      10.944      10.342      9.7117      9.0894      8.5002    
  7.9667      7.5078      7.1381      6.8678      6.7033      6.6481      6.7033      6.8678      7.1381      7.5078    
  7.9667      8.5002      9.0894      9.7117      10.342      10.944      11.459      11.834      12.039      12.069    
  12.051      12.045      11.959      11.836      11.722      11.655      11.655      11.722      11.836      11.959    
  12.045      12.051      11.939      11.689      11.305      10.807      10.239      9.6458      9.0539      8.4866    
  7.9653      7.5078      7.1283      6.8367      6.6393      6.5398      6.5398      6.6393      6.8367      7.1283    
  7.5078      7.9653      8.4866      9.0539      9.6458      10.239      10.807      11.305      11.689      11.939    
  11.746      11.915      11.993      12.006      11.984      11.957      11.945      11.957      11.984      12.006    
  11.993      11.915      11.746      11.470      11.088      10.619      10.095      9.5467      8.9946      8.4595    
  7.9610      7.5161      7.1381      6.8367      6.6180      6.4857      6.4414      6.4857      6.6180      6.8367    
  7.1381      7.5161      7.9610      8.4595      8.9946      9.5467      10.095      10.619      11.088      11.470    
  11.166      11.446      11.644      11.768      11.836      11.867      11.878      11.878      11.867      11.836    
  11.768      11.644      11.446      11.166      10.805      10.379      9.9094      9.4146      8.9118      8.4191    
  7.9543      7.5329      7.1677      6.8678      6.6393      6.4857      6.4086      6.4086      6.4857      6.6393    
  6.8678      7.1677      7.5329      7.9543      8.4191      8.9118      9.4146      9.9094      10.379      10.806    
  10.461      10.782      11.042      11.238      11.375      11.461      11.507      11.522      11.507      11.461    
  11.375      11.238      11.042      10.782      10.461      10.091      9.6839      9.2507      8.8062      8.3659    
  7.9453      7.5585      7.2172      6.9302      6.7033      6.5398      6.4414      6.4086      6.4414      6.5398    
  6.7033      6.9302      7.2172      7.5585      7.9453      8.3659      8.8062      9.2507      9.6839      10.091    
  9.7620      10.068      10.332      10.552      10.722      10.844      10.921      10.958      10.958      10.921    
  10.844      10.722      10.552      10.332      10.068      9.7620      9.4221      9.0575      8.6794      8.3008    
  7.9346      7.5932      7.2869      7.0240      6.8100      6.6481      6.5398      6.4857      6.4857      6.5398    
  6.6481      6.8100      7.0240      7.2869      7.5932      7.9346      8.3008      8.6794      9.0574      9.4221    
  9.1297      9.3981      9.6369      9.8411      10.008      10.137      10.227      10.281      10.298      10.281    
  10.227      10.137      10.008      9.8411      9.6369      9.3981      9.1297      8.8387      8.5338      8.2250    
  7.9227      7.6369      7.3766      7.1489      6.9590      6.8100      6.7033      6.6393      6.6180      6.6393    
  6.7033      6.8100      6.9590      7.1489      7.3766      7.6369      7.9227      8.2250      8.5338      8.8387    
  8.6001      8.8144      9.0098      9.1814      9.3258      9.4413      9.5274      9.5842      9.6123      9.6123    
  9.5842      9.5274      9.4413      9.3258      9.1814      9.0098      8.8144      8.6001      8.3730      8.1404    
  7.9098      7.6891      7.4850      7.3035      7.1489      7.0240      6.9302      6.8678      6.8367      6.8367    
  6.8678      6.9302      7.0240      7.1489      7.3035      7.4850      7.6891      7.9098      8.1404      8.3730    
  8.2015      8.3484      8.4856      8.6090      8.7158      8.8041      8.8727      8.9214      8.9504      8.9600    
  8.9504      8.9214      8.8727      8.8041      8.7158      8.6090      8.4856      8.3484      8.2015      8.0492    
  7.8966      7.7486      7.6101      7.4850      7.3766      7.2869      7.2172      7.1677      7.1381      7.1283    
  7.1381      7.1677      7.2172      7.2869      7.3766      7.4850      7.6101      7.7486      7.8966      8.0492    
  7.9543      8.0245      8.0917      8.1538      8.2091      8.2562      8.2942      8.3228      8.3417      8.3511    
  8.3511      8.3417      8.3228      8.2942      8.2562      8.2091      8.1538      8.0917      8.0245      7.9543    
  7.8834      7.8141      7.7486      7.6891      7.6369      7.5932      7.5585      7.5329      7.5161      7.5078    
  7.5078      7.5161      7.5329      7.5585      7.5932      7.6369      7.6891      7.7486      7.8141      7.8834    
  7.8705      7.8585      7.8476      7.8381      7.8300      7.8234      7.8181      7.8141      7.8113      7.8096    
  7.8090      7.8096      7.8113      7.8141      7.8181      7.8234      7.8300      7.8381      7.8476      7.8585    
  7.8705      7.8834      7.8966      7.9098      7.9227      7.9346      7.9453      7.9543      7.9610      7.9653    
  7.9667      7.9653      7.9610      7.9543      7.9453      7.9346      7.9227      7.9098      7.8966      7.8834    
  7.9543      7.8585      7.7650      7.6766      7.5958      7.5246      7.4644      7.4159      7.3795      7.3553    