Si beta-tin                             
   2.80000000000000     
     1.012934    0.000000    0.000000
    -0.506467    0.877226   -0.000000
     0.000000    0.000000    1.591554
    S
     2
Direct
 -0.000000  0.000000  0.000000
  0.333333  0.666667  0.500000
 
   40   40   64
 -.50377179009E+01 -.45934728192E+01 -.33139812130E+01 -.13509496530E+01 0.10684450468E+01
 0.36760030376E+01 0.62022723627E+01 0.84139183785E+01 0.10141699447E+02 0.11295114609E+02
 0.11863624795E+02 0.11907088229E+02 0.11538915683E+02 0.10905061328E+02 0.10161439437E+02
 0.94363529504E+01 0.87849863987E+01 0.82424162574E+01 0.78359574857E+01 0.75846920729E+01
 0.74997283740E+01 0.75846920978E+01 0.78359575214E+01 0.82424162825E+01 0.87849863950E+01
 0.94363529129E+01 0.10161439379E+02 0.10905061278E+02 0.11538915677E+02 0.11907088295E+02
 0.11863624943E+02 0.11295114824E+02 0.10141699694E+02 0.84139186080E+01 0.62022725323E+01
 0.36760031224E+01 0.10684450482E+01 -.13509497090E+01 -.33139812854E+01 -.45934728678E+01
 -.45934728678E+01 -.45934727983E+01 -.37319917976E+01 -.21122246691E+01 0.75075199687E-01
 0.25806241355E+01 0.51341987855E+01 0.74837089065E+01 0.94281700989E+01 0.10838984398E+02
 0.11667575176E+02 0.11940834431E+02 0.11747611367E+02 0.11219583434E+02 0.10509302625E+02
 0.97651836978E+01 0.90740821011E+01 0.84752865284E+01 0.79997722408E+01 0.76704641992E+01
 0.75022034444E+01 0.75022034663E+01 0.76704642520E+01 0.79997722919E+01 0.84752865399E+01
 0.90740820477E+01 0.97651835801E+01 0.10509302472E+02 0.11219583295E+02 0.11747611292E+02
 0.11940834451E+02 0.11667575290E+02 0.10838984569E+02 0.94281702652E+01 0.74837090034E+01
 0.51341987683E+01 0.25806239974E+01 0.75074975748E-01 -.21122249122E+01 -.37319919836E+01
 -.33139812854E+01 -.37314910301E+01 -.33139811013E+01 -.21122245947E+01 -.27077635104E+00
 0.19942060846E+01 0.44280223016E+01 0.67753948403E+01 0.88159916929E+01 0.10390958586E+02
 0.11416808446E+02 0.11886561874E+02 0.11860552105E+02 0.11450137042E+02 0.10797279923E+02
 0.10052509544E+02 0.93334579315E+01 0.86894326657E+01 0.81541700335E+01 0.77538239154E+01
 0.75065916373E+01 0.74230338626E+01 0.75065916877E+01 0.77538239869E+01 0.81541700800E+01
 0.86894326446E+01 0.93334578227E+01 0.10052509360E+02 0.10797279707E+02 0.11450136851E+02
 0.11860551988E+02 0.11886561850E+02 0.11416808496E+02 0.10390958656E+02 0.88159917139E+01
 0.67753947538E+01 0.44280220838E+01 0.19942057592E+01 -.27077671757E+00 -.21122249122E+01
 -.13509497090E+01 -.21108676315E+01 -.21108675372E+01 -.13509494503E+01 0.75075334804E-01
 0.19942061354E+01 0.41811581152E+01 0.63928142508E+01 0.84036698286E+01 0.10035534974E+02
 0.11176655845E+02 0.11788570614E+02 0.11901894132E+02 0.11603743679E+02 0.11019730969E+02
 0.10293156184E+02 0.95572199290E+01 0.88791478843E+01 0.82945458894E+01 0.78319938433E+01
 0.75124646611E+01 0.73494394860E+01 0.73494395151E+01 0.75124647335E+01 0.78319939201E+01
 0.82945459238E+01 0.88791478409E+01 0.95572197990E+01 0.10293155989E+02 0.11019730754E+02
 0.11603743493E+02 0.11901894010E+02 0.11788570558E+02 0.11176655826E+02 0.10035534938E+02
 0.84036697207E+01 0.63928140363E+01 0.41811577974E+01 0.19942057592E+01 0.75074975748E-01
 0.10684450482E+01 0.77422000557E-01 -.26757244673E+00 0.77422126522E-01 0.10684452700E+01
 0.25806242646E+01 0.44280223424E+01 0.63928142451E+01 0.82582999451E+01 0.98394376504E+01
 0.11005514853E+02 0.11692010206E+02 0.11901491803E+02 0.11695363886E+02 0.11179040249E+02
 0.10483128041E+02 0.97416150732E+01 0.90402707047E+01 0.84172067817E+01 0.79025360086E+01
 0.75192870435E+01 0.72832878583E+01 0.72036382159E+01 0.72832879112E+01 0.75192871270E+01
 0.79025360870E+01 0.84172068190E+01 0.90402706783E+01 0.97416149819E+01 0.10483127905E+02
 0.11179040100E+02 0.11695363755E+02 0.11901491708E+02 0.11692010142E+02 0.11005514795E+02
 0.98394375647E+01 0.82582998028E+01 0.63928140363E+01 0.44280220838E+01 0.25806239974E+01
 0.36760031224E+01 0.25838883807E+01 0.19993217800E+01 0.19993217958E+01 0.25838884247E+01
 0.36760031846E+01 0.51341988363E+01 0.67753948172E+01 0.84036697741E+01 0.98394376092E+01
 0.10943678471E+02 0.11633502533E+02 0.11887691064E+02 0.11742948886E+02 0.11282797849E+02
 0.10621437776E+02 0.98848256265E+01 0.91702051937E+01 0.85195031931E+01 0.79634863240E+01
 0.75264675988E+01 0.72259631666E+01 0.70730582174E+01 0.70730582405E+01 0.72259632296E+01
 0.75264676853E+01 0.79634864118E+01 0.85195032617E+01 0.91702052294E+01 0.98848256255E+01
 0.10621437745E+02 0.11282797799E+02 0.11742948830E+02 0.11887691013E+02 0.11633502488E+02
 0.10943678430E+02 0.98394375647E+01 0.84036697207E+01 0.67753947538E+01 0.51341987683E+01
 0.62022725323E+01 0.51381810585E+01 0.44347865132E+01 0.41889239991E+01 0.44347864390E+01
 0.51381809275E+01 0.62022723741E+01 0.74837088511E+01 0.88159915948E+01 0.10035534866E+02
 0.11005514768E+02 0.11633502492E+02 0.11880661268E+02 0.11762198235E+02 0.11340175219E+02
 0.10710528741E+02 0.99864940060E+01 0.92677112437E+01 0.85998022615E+01 0.80134105696E+01
 0.75334020200E+01 0.71783147014E+01 0.69605960823E+01 0.68872718766E+01 0.69605961090E+01
 0.71783147555E+01 0.75334021011E+01 0.80134106739E+01 0.85998023799E+01 0.92677113622E+01
 0.99864941084E+01 0.10710528814E+02 0.11340175255E+02 0.11762198241E+02 0.11880661258E+02
 0.11633502488E+02 0.11005514795E+02 0.10035534938E+02 0.88159917139E+01 0.74837090034E+01
 0.84139186080E+01 0.74881675101E+01 0.67833786475E+01 0.64027538907E+01 0.64027538098E+01
 0.67833784244E+01 0.74881671973E+01 0.84139182747E+01 0.94281699762E+01 0.10390958452E+02
 0.11176655717E+02 0.11692010105E+02 0.11887691004E+02 0.11762198215E+02 0.11358394968E+02
 0.10753887787E+02 0.10047073684E+02 0.93325089821E+01 0.86573114285E+01 0.80513794105E+01
 0.75395123661E+01 0.71406733670E+01 0.68680875901E+01 0.67298878229E+01 0.67298878202E+01
 0.68680875895E+01 0.71406733871E+01 0.75395124273E+01 0.80513795239E+01 0.86573115886E+01
 0.93325091656E+01 0.10047073857E+02 0.10753887919E+02 0.11358395043E+02 0.11762198241E+02
 0.11887691013E+02 0.11692010142E+02 0.11176655826E+02 0.10390958656E+02 0.94281702652E+01
 0.10141699694E+02 0.94328703853E+01 0.88247308451E+01 0.84151534624E+01 0.82707576590E+01
 0.84151532704E+01 0.88247305098E+01 0.94328699884E+01 0.10141699323E+02 0.10838984293E+02
 0.11416808342E+02 0.11788570510E+02 0.11901491717E+02 0.11742948835E+02 0.11340175206E+02
 0.10753887796E+02 0.10067169820E+02 0.93647934290E+01 0.86917976002E+01 0.80768756104E+01
 0.75442878197E+01 0.71129501667E+01 0.67963819545E+01 0.66032936167E+01 0.65384333844E+01
 0.66032935726E+01 0.67963818923E+01 0.71129501273E+01 0.75442878412E+01 0.80768757109E+01
 0.86917977689E+01 0.93647936288E+01 0.10067170001E+02 0.10753887919E+02 0.11340175255E+02
 0.11742948830E+02 0.11901491708E+02 0.11788570558E+02 0.11416808496E+02 0.10838984569E+02
 0.11295114824E+02 0.10843707017E+02 0.10400006760E+02 0.10047905918E+02 0.98536176227E+01
 0.98536175346E+01 0.10047905679E+02 0.10400006437E+02 0.10843706695E+02 0.11295114579E+02
 0.11667575164E+02 0.11886561840E+02 0.11901894073E+02 0.11695363828E+02 0.11282797823E+02
 0.10710528758E+02 0.10047073729E+02 0.93647934689E+01 0.87032808876E+01 0.80896634972E+01
 0.75473258097E+01 0.70948063268E+01 0.67455742835E+01 0.65085209703E+01 0.63888287377E+01
 0.63888286924E+01 0.65085208527E+01 0.67455741410E+01 0.70948062172E+01 0.75473257787E+01
 0.80896635599E+01 0.87032810231E+01 0.93647936288E+01 0.10047073857E+02 0.10710528814E+02
 0.11282797799E+02 0.11695363755E+02 0.11901894010E+02 0.11886561850E+02 0.11667575290E+02
 0.11863624943E+02 0.11672104726E+02 0.11425732267E+02 0.11189263830E+02 0.11020578472E+02
 0.10959604553E+02 0.11020578373E+02 0.11189263668E+02 0.11425732099E+02 0.11672104611E+02
 0.11863624919E+02 0.11940834523E+02 0.11860552124E+02 0.11603743643E+02 0.11179040209E+02
 0.10621437780E+02 0.99864940694E+01 0.93325090847E+01 0.86917976981E+01 0.80896635499E+01
 0.75483681641E+01 0.70858575835E+01 0.67153459310E+01 0.64456632243E+01 0.62820873897E+01
 0.62272947076E+01 0.62820872771E+01 0.64456630353E+01 0.67153457248E+01 0.70858574206E+01
 0.75483680847E+01 0.80896635599E+01 0.86917977689E+01 0.93325091656E+01 0.99864941084E+01
 0.10621437745E+02 0.11179040100E+02 0.11603743493E+02 0.11860551988E+02 0.11940834451E+02
 0.11907088295E+02 0.11944953083E+02 0.11894924717E+02 0.11800760838E+02 0.11707096425E+02
 0.11650148510E+02 0.11650148507E+02 0.11707096424E+02 0.11800760859E+02 0.11894924780E+02
 0.11944953202E+02 0.11907088465E+02 0.11747611492E+02 0.11450137047E+02 0.11019730912E+02
 0.10483128003E+02 0.98848256643E+01 0.92677113639E+01 0.86573115911E+01 0.80768757535E+01
 0.75473258872E+01 0.70858575961E+01 0.67053226205E+01 0.64143858309E+01 0.62182512160E+01
 0.61196331833E+01 0.61196331271E+01 0.62182510624E+01 0.64143856202E+01 0.67053224043E+01
 0.70858574206E+01 0.75473257787E+01 0.80768757109E+01 0.86573115886E+01 0.92677113622E+01
 0.98848256255E+01 0.10483127905E+02 0.11019730754E+02 0.11450136851E+02 0.11747611292E+02
 0.11538915677E+02 0.11751107989E+02 0.11867920258E+02 0.11913007905E+02 0.11915723542E+02
 0.11903985732E+02 0.11897677235E+02 0.11903985818E+02 0.11915723703E+02 0.11913008121E+02
 0.11867920504E+02 0.11751108239E+02 0.11538915905E+02 0.11219583483E+02 0.10797279845E+02
 0.10293156082E+02 0.97416150418E+01 0.91702052760E+01 0.85998024348E+01 0.80513796043E+01
 0.75442879556E+01 0.70948063624E+01 0.67153458860E+01 0.64143857745E+01 0.61970248287E+01
 0.60658896636E+01 0.60220838584E+01 0.60658895965E+01 0.61970247070E+01 0.64143856202E+01
 0.67153457248E+01 0.70948062172E+01 0.75442878412E+01 0.80513795239E+01 0.85998023799E+01
 0.91702052294E+01 0.97416149819E+01 0.10293155989E+02 0.10797279707E+02 0.11219583295E+02
 0.10905061278E+02 0.11222273994E+02 0.11456112117E+02 0.11613153726E+02 0.11707883751E+02
 0.11757819032E+02 0.11778331263E+02 0.11778331336E+02 0.11757819233E+02 0.11707884036E+02
 0.11613154036E+02 0.11456112395E+02 0.11222274201E+02 0.10905061401E+02 0.10509302523E+02
 0.10052509370E+02 0.95572198026E+01 0.90402707046E+01 0.85195033228E+01 0.80134107646E+01
 0.75395125296E+01 0.71129502199E+01 0.67455742078E+01 0.64456630713E+01 0.62182510735E+01
 0.60658895952E+01 0.59895773721E+01 0.59895773741E+01 0.60658895965E+01 0.62182510624E+01
 0.64456630353E+01 0.67455741410E+01 0.71129501273E+01 0.75395124273E+01 0.80134106739E+01
 0.85195032617E+01 0.90402706783E+01 0.95572197990E+01 0.10052509360E+02 0.10509302472E+02
 0.10161439379E+02 0.10511052243E+02 0.10801542289E+02 0.11026900514E+02 0.11189078639E+02
 0.11295242547E+02 0.11354214910E+02 0.11372992333E+02 0.11354215057E+02 0.11295242799E+02
 0.11189078924E+02 0.11026900756E+02 0.10801542432E+02 0.10511052268E+02 0.10161439306E+02
 0.97651834598E+01 0.93334577127E+01 0.88791477858E+01 0.84172068337E+01 0.79634864789E+01
 0.75334021797E+01 0.71406734317E+01 0.67963818719E+01 0.65085207642E+01 0.62820871466E+01
 0.61196329997E+01 0.60220837803E+01 0.59895773721E+01 0.60220838584E+01 0.61196331271E+01
 0.62820872771E+01 0.65085208527E+01 0.67963818923E+01 0.71406733871E+01 0.75334021011E+01
 0.79634864118E+01 0.84172068190E+01 0.88791478409E+01 0.93334578227E+01 0.97651835801E+01
 0.94363529129E+01 0.97659234885E+01 0.10054856478E+02 0.10297698731E+02 0.10490081327E+02
 0.10630620511E+02 0.10721410036E+02 0.10765683786E+02 0.10765683845E+02 0.10721410189E+02
 0.10630620700E+02 0.10490081477E+02 0.10297698782E+02 0.10054856404E+02 0.97659233060E+01
 0.94363526747E+01 0.90740818219E+01 0.86894324885E+01 0.82945458627E+01 0.79025361053E+01
 0.75264677340E+01 0.71783147729E+01 0.68680875263E+01 0.66032934132E+01 0.63888284623E+01
 0.62272944654E+01 0.61196329997E+01 0.60658895952E+01 0.60658896636E+01 0.61196331833E+01
 0.62272947076E+01 0.63888286924E+01 0.66032935726E+01 0.68680875895E+01 0.71783147555E+01
 0.75264676853E+01 0.79025360870E+01 0.82945459238E+01 0.86894326446E+01 0.90740820477E+01
 0.87849863950E+01 0.90738185511E+01 0.93338283187E+01 0.95589432530E+01 0.97451104158E+01
 0.98901591069E+01 0.99933994233E+01 0.10055027211E+02 0.10075490144E+02 0.10055027261E+02
 0.99933994922E+01 0.98901591443E+01 0.97451103739E+01 0.95589431067E+01 0.93338280776E+01
 0.90738182578E+01 0.87849861108E+01 0.84752863219E+01 0.81541699602E+01 0.78319938926E+01
 0.75192871507E+01 0.72259632435E+01 0.69605960561E+01 0.67298876704E+01 0.65384331476E+01
 0.63888284623E+01 0.62820871466E+01 0.62182510735E+01 0.61970248287E+01 0.62182512160E+01
 0.62820873897E+01 0.63888287377E+01 0.65384333844E+01 0.67298878202E+01 0.69605961090E+01
 0.72259632296E+01 0.75192871270E+01 0.78319939201E+01 0.81541700800E+01 0.84752865399E+01
 0.82424162825E+01 0.84741035164E+01 0.86879168540E+01 0.88780764931E+01 0.90402051247E+01
 0.91714100717E+01 0.92701506520E+01 0.93359031183E+01 0.93687027648E+01 0.93687027611E+01
 0.93359030993E+01 0.92701505978E+01 0.91714099610E+01 0.90402049467E+01 0.88780762562E+01
 0.86879165875E+01 0.84741032627E+01 0.82424160835E+01 0.79997721743E+01 0.77538239515E+01
 0.75124647540E+01 0.72832879425E+01 0.70730582347E+01 0.68872718003E+01 0.67298876704E+01
 0.66032934132E+01 0.65085207642E+01 0.64456630713E+01 0.64143857745E+01 0.64143858309E+01
 0.64456632243E+01 0.65085209703E+01 0.66032936167E+01 0.67298878229E+01 0.68872718766E+01
 0.70730582405E+01 0.72832879112E+01 0.75124647335E+01 0.77538239869E+01 0.79997722919E+01
 0.78359575214E+01 0.79978261133E+01 0.81510056607E+01 0.82909221500E+01 0.84137577750E+01
 0.85166327867E+01 0.85976564794E+01 0.86558192403E+01 0.86907449651E+01 0.87023816037E+01
 0.86907449160E+01 0.86558191442E+01 0.85976563419E+01 0.85166326184E+01 0.84137575923E+01
 0.82909219741E+01 0.81510055142E+01 0.79978260148E+01 0.78359574803E+01 0.76704642652E+01
 0.75065917392E+01 0.73494395803E+01 0.72036382677E+01 0.70730582347E+01 0.69605960561E+01
 0.68680875263E+01 0.67963818719E+01 0.67455742078E+01 0.67153458860E+01 0.67053226205E+01
 0.67153459310E+01 0.67455742835E+01 0.67963819545E+01 0.68680875901E+01 0.69605960823E+01
 0.70730582174E+01 0.72036382159E+01 0.73494395151E+01 0.75065916877E+01 0.76704642520E+01
 0.75846920978E+01 0.76679723213E+01 0.77493787278E+01 0.78262595943E+01 0.78961455861E+01
 0.79569172172E+01 0.80069342082E+01 0.80450856066E+01 0.80707396131E+01 0.80836119958E+01
 0.80836119634E+01 0.80707395236E+01 0.80450854818E+01 0.80069340773E+01 0.79569171094E+01
 0.78961455233E+01 0.78262595863E+01 0.77493787718E+01 0.76679724045E+01 0.75846922029E+01
 0.75022035769E+01 0.74230339675E+01 0.73494395803E+01 0.72832879425E+01 0.72259632435E+01
 0.71783147729E+01 0.71406734317E+01 0.71129502199E+01 0.70948063624E+01 0.70858575961E+01
 0.70858575835E+01 0.70948063268E+01 0.71129501667E+01 0.71406733670E+01 0.71783147014E+01
 0.72259631666E+01 0.72832878583E+01 0.73494394860E+01 0.74230338626E+01 0.75022034663E+01
 0.74997283740E+01 0.74994271752E+01 0.75013349285E+01 0.75052259864E+01 0.75106232440E+01
 0.75168608260E+01 0.75231887458E+01 0.75288896388E+01 0.75333724150E+01 0.75362202877E+01
 0.75371949734E+01 0.75362202293E+01 0.75333723218E+01 0.75288895495E+01 0.75231887007E+01
 0.75168608537E+01 0.75106233516E+01 0.75052261583E+01 0.75013351331E+01 0.74994273770E+01
 0.74997285460E+01 0.75022035769E+01 0.75065917392E+01 0.75124647540E+01 0.75192871507E+01
 0.75264677340E+01 0.75334021797E+01 0.75395125296E+01 0.75442879556E+01 0.75473258872E+01
 0.75483681641E+01 0.75473258097E+01 0.75442878197E+01 0.75395123661E+01 0.75334020200E+01
 0.75264675988E+01 0.75192870435E+01 0.75124646611E+01 0.75065916373E+01 0.75022034444E+01
 0.75846920729E+01 0.74994271725E+01 0.74174992939E+01 0.73414186238E+01 0.72731895759E+01
 0.72142041267E+01 0.71652344957E+01 0.71265218018E+01 0.70979346117E+01 0.70791573149E+01
 0.70698670404E+01 0.70698670143E+01 0.70791572509E+01 0.70979345475E+01 0.71265217836E+01
 0.71652345602E+01 0.72142042863E+01 0.72731898135E+01 0.73414188981E+01 0.74174995543E+01
 0.74994273770E+01 0.75846922029E+01 0.76704642652E+01 0.77538239515E+01 0.78319938926E+01
 0.79025361053E+01 0.79634864789E+01 0.80134107646E+01 0.80513796043E+01 0.80768757535E+01
 0.80896635499E+01 0.80896634972E+01 0.80768756104E+01 0.80513794105E+01 0.80134105696E+01
 0.79634863240E+01 0.79025360086E+01 0.78319938433E+01 0.77538239154E+01 0.76704641992E+01
 0.78359574857E+01 0.76679723141E+01 0.75013349449E+01 0.73414186438E+01 0.71930499077E+01
 0.70601848073E+01 0.69457175337E+01 0.68514526275E+01 0.67782396425E+01 0.67262341025E+01
 0.66952209000E+01 0.66849228149E+01 0.66952208571E+01 0.67262340448E+01 0.67782396144E+01
 0.68514526714E+01 0.69457176713E+01 0.70601850292E+01 0.71930501741E+01 0.73414188981E+01
 0.75013351331E+01 0.76679724045E+01 0.78359574803E+01 0.79997721743E+01 0.81541699602E+01
 0.82945458627E+01 0.84172068337E+01 0.85195033228E+01 0.85998024348E+01 0.86573115911E+01
 0.86917976981E+01 0.87032808876E+01 0.86917976002E+01 0.86573114285E+01 0.85998022615E+01
 0.85195031931E+01 0.84172067817E+01 0.82945458894E+01 0.81541700335E+01 0.79997722408E+01
 0.82424162574E+01 0.79978261034E+01 0.77493787498E+01 0.75052260356E+01 0.72731896307E+01
 0.70601848420E+01 0.68717810304E+01 0.67119731077E+01 0.65831996271E+01 0.64865915454E+01
 0.64223842576E+01 0.63903868001E+01 0.63903867777E+01 0.64223842041E+01 0.64865914952E+01
 0.65831996208E+01 0.67119731739E+01 0.68717811711E+01 0.70601850292E+01 0.72731898135E+01
 0.75052261583E+01 0.77493787718E+01 0.79978260148E+01 0.82424160835E+01 0.84752863219E+01
 0.86894324885E+01 0.88791477858E+01 0.90402707046E+01 0.91702052760E+01 0.92677113639E+01
 0.93325090847E+01 0.93647934689E+01 0.93647934290E+01 0.93325089821E+01 0.92677112437E+01
 0.91702051937E+01 0.90402707047E+01 0.88791478843E+01 0.86894326657E+01 0.84752865284E+01
 0.87849863987E+01 0.84741035049E+01 0.81510056708E+01 0.78262596442E+01 0.75106233266E+01
 0.72142042155E+01 0.69457175983E+01 0.67119731327E+01 0.65176767392E+01 0.63655681174E+01
 0.62568394341E+01 0.61917162842E+01 0.61700434183E+01 0.61917162487E+01 0.62568393816E+01
 0.63655680763E+01 0.65176767347E+01 0.67119731739E+01 0.69457176713E+01 0.72142042863E+01
 0.75106233516E+01 0.78262595863E+01 0.81510055142E+01 0.84741032627E+01 0.87849861108E+01
 0.90740818219E+01 0.93334577127E+01 0.95572198026E+01 0.97416150418E+01 0.98848256643E+01
 0.99864940694E+01 0.10047073729E+02 0.10067169820E+02 0.10047073684E+02 0.99864940060E+01
 0.98848256265E+01 0.97416150732E+01 0.95572199290E+01 0.93334579315E+01 0.90740821011E+01
 0.94363529504E+01 0.90738185365E+01 0.86879168354E+01 0.82909221676E+01 0.78961456543E+01
 0.75168609297E+01 0.71652345990E+01 0.68514526936E+01 0.65831996421E+01 0.63655681032E+01
 0.62013781663E+01 0.60917904364E+01 0.60370320218E+01 0.60370320129E+01 0.60917904130E+01
 0.62013781369E+01 0.63655680763E+01 0.65831996208E+01 0.68514526714E+01 0.71652345602E+01
 0.75168608537E+01 0.78961455233E+01 0.82909219741E+01 0.86879165875E+01 0.90738182578E+01
 0.94363526747E+01 0.97651834598E+01 0.10052509370E+02 0.10293156082E+02 0.10483128003E+02
 0.10621437780E+02 0.10710528758E+02 0.10753887796E+02 0.10753887787E+02 0.10710528741E+02
 0.10621437776E+02 0.10483128041E+02 0.10293156184E+02 0.10052509544E+02 0.97651836978E+01
 0.10161439437E+02 0.97659234658E+01 0.93338282622E+01 0.88780764554E+01 0.84137577909E+01
 0.79569172900E+01 0.75231888472E+01 0.71265218852E+01 0.67782396689E+01 0.64865915094E+01
 0.62568393694E+01 0.60917903916E+01 0.59925863338E+01 0.59595110723E+01 0.59925863491E+01
 0.60917904130E+01 0.62568393816E+01 0.64865914952E+01 0.67782396144E+01 0.71265217836E+01
 0.75231887007E+01 0.79569171094E+01 0.84137575923E+01 0.88780762562E+01 0.93338280776E+01
 0.97659233060E+01 0.10161439306E+02 0.10509302523E+02 0.10797279845E+02 0.11019730912E+02
 0.11179040209E+02 0.11282797823E+02 0.11340175206E+02 0.11358394968E+02 0.11340175219E+02
 0.11282797849E+02 0.11179040249E+02 0.11019730969E+02 0.10797279923E+02 0.10509302625E+02
 0.10905061328E+02 0.10511052203E+02 0.10054856385E+02 0.95589431584E+01 0.90402050725E+01
 0.85166327973E+01 0.80069342698E+01 0.75288897107E+01 0.70979346428E+01 0.67262340614E+01
 0.64223841552E+01 0.61917161682E+01 0.60370319420E+01 0.59595110444E+01 0.59595110723E+01
 0.60370320129E+01 0.61917162487E+01 0.64223842041E+01 0.67262340448E+01 0.70979345475E+01
 0.75288895495E+01 0.80069340773E+01 0.85166326184E+01 0.90402049467E+01 0.95589431067E+01
 0.10054856404E+02 0.10511052268E+02 0.10905061401E+02 0.11219583483E+02 0.11450137047E+02
 0.11603743643E+02 0.11695363828E+02 0.11742948835E+02 0.11762198215E+02 0.11762198235E+02
 0.11742948886E+02 0.11695363886E+02 0.11603743679E+02 0.11450137042E+02 0.11219583434E+02
 0.11538915683E+02 0.11222273927E+02 0.10801542172E+02 0.10297698601E+02 0.97451103115E+01
 0.91714100189E+01 0.85976564829E+01 0.80450856443E+01 0.75333724421E+01 0.70791572867E+01
 0.66952208016E+01 0.63903866607E+01 0.61700432926E+01 0.60370319420E+01 0.59925863338E+01
 0.60370320218E+01 0.61700434183E+01 0.63903867777E+01 0.66952208571E+01 0.70791572509E+01
 0.75333723218E+01 0.80450854818E+01 0.85976563419E+01 0.91714099610E+01 0.97451103739E+01
 0.10297698782E+02 0.10801542432E+02 0.11222274201E+02 0.11538915905E+02 0.11747611492E+02
 0.11860552124E+02 0.11901894073E+02 0.11901491717E+02 0.11887691004E+02 0.11880661268E+02
 0.11887691064E+02 0.11901491803E+02 0.11901894132E+02 0.11860552105E+02 0.11747611367E+02
 0.11907088229E+02 0.11751107886E+02 0.11456111993E+02 0.11026900388E+02 0.10490081215E+02
 0.98901590237E+01 0.92701506086E+01 0.86558192363E+01 0.80707396274E+01 0.75362202824E+01
 0.70698669842E+01 0.66849227092E+01 0.63903866607E+01 0.61917161682E+01 0.60917903916E+01
 0.60917904364E+01 0.61917162842E+01 0.63903868001E+01 0.66849228149E+01 0.70698670143E+01
 0.75362202293E+01 0.80707395236E+01 0.86558191442E+01 0.92701505978E+01 0.98901591443E+01
 0.10490081477E+02 0.11026900756E+02 0.11456112395E+02 0.11751108239E+02 0.11907088465E+02
 0.11940834523E+02 0.11886561840E+02 0.11788570510E+02 0.11692010105E+02 0.11633502492E+02
 0.11633502533E+02 0.11692010206E+02 0.11788570614E+02 0.11886561874E+02 0.11940834431E+02
 0.11863624795E+02 0.11944952938E+02 0.11867920141E+02 0.11613153642E+02 0.11189078576E+02
 0.10630620455E+02 0.99933993717E+01 0.93359030847E+01 0.86907449595E+01 0.80836120081E+01
 0.75371949755E+01 0.70698669842E+01 0.66952208016E+01 0.64223841552E+01 0.62568393694E+01
 0.62013781663E+01 0.62568394341E+01 0.64223842576E+01 0.66952209000E+01 0.70698670404E+01
 0.75371949734E+01 0.80836119634E+01 0.86907449160E+01 0.93359030993E+01 0.99933994922E+01
 0.10630620700E+02 0.11189078924E+02 0.11613154036E+02 0.11867920504E+02 0.11944953202E+02
 0.11863624919E+02 0.11667575164E+02 0.11416808342E+02 0.11176655717E+02 0.11005514768E+02
 0.10943678471E+02 0.11005514853E+02 0.11176655845E+02 0.11416808446E+02 0.11667575176E+02
 0.11295114609E+02 0.11672104540E+02 0.11894924612E+02 0.11913007887E+02 0.11707883784E+02
 0.11295242577E+02 0.10721410029E+02 0.10055027175E+02 0.93687027362E+01 0.87023816125E+01
 0.80836120081E+01 0.75362202824E+01 0.70791572867E+01 0.67262340614E+01 0.64865915094E+01
 0.63655681032E+01 0.63655681174E+01 0.64865915454E+01 0.67262341025E+01 0.70791573149E+01
 0.75362202877E+01 0.80836119958E+01 0.87023816037E+01 0.93687027611E+01 0.10055027261E+02
 0.10721410189E+02 0.11295242799E+02 0.11707884036E+02 0.11913008121E+02 0.11894924780E+02
 0.11672104611E+02 0.11295114579E+02 0.10838984293E+02 0.10390958452E+02 0.10035534866E+02
 0.98394376092E+01 0.98394376504E+01 0.10035534974E+02 0.10390958586E+02 0.10838984398E+02
 0.10141699447E+02 0.10843706799E+02 0.11425732167E+02 0.11800760884E+02 0.11915723687E+02
 0.11757819186E+02 0.11354214995E+02 0.10765683782E+02 0.10075490094E+02 0.93687027362E+01
 0.86907449595E+01 0.80707396274E+01 0.75333724421E+01 0.70979346428E+01 0.67782396689E+01
 0.65831996421E+01 0.65176767392E+01 0.65831996271E+01 0.67782396425E+01 0.70979346117E+01
 0.75333724150E+01 0.80707396131E+01 0.86907449651E+01 0.93687027648E+01 0.10075490144E+02
 0.10765683845E+02 0.11354215057E+02 0.11757819233E+02 0.11915723703E+02 0.11800760859E+02
 0.11425732099E+02 0.10843706695E+02 0.10141699323E+02 0.94281699762E+01 0.88159915948E+01
 0.84036697741E+01 0.82582999451E+01 0.84036698286E+01 0.88159916929E+01 0.94281700989E+01
 0.84139183785E+01 0.94328701490E+01 0.10400006648E+02 0.11189263907E+02 0.11707096659E+02
 0.11903986012E+02 0.11778331465E+02 0.11372992389E+02 0.10765683782E+02 0.10055027175E+02
 0.93359030847E+01 0.86558192363E+01 0.80450856443E+01 0.75288897107E+01 0.71265218852E+01
 0.68514526936E+01 0.67119731327E+01 0.67119731077E+01 0.68514526275E+01 0.71265218018E+01
 0.75288896388E+01 0.80450856066E+01 0.86558192403E+01 0.93359031183E+01 0.10055027211E+02
 0.10765683786E+02 0.11372992333E+02 0.11778331336E+02 0.11903985818E+02 0.11707096424E+02
 0.11189263668E+02 0.10400006437E+02 0.94328699884E+01 0.84139182747E+01 0.74837088511E+01
 0.67753948172E+01 0.63928142451E+01 0.63928142508E+01 0.67753948403E+01 0.74837089065E+01
 0.62022723627E+01 0.74881672733E+01 0.88247307000E+01 0.10047905976E+02 0.11020578736E+02
 0.11650148874E+02 0.11897677541E+02 0.11778331465E+02 0.11354214995E+02 0.10721410029E+02
 0.99933993717E+01 0.92701506086E+01 0.85976564829E+01 0.80069342698E+01 0.75231888472E+01
 0.71652345990E+01 0.69457175983E+01 0.68717810304E+01 0.69457175337E+01 0.71652344957E+01
 0.75231887458E+01 0.80069342082E+01 0.85976564794E+01 0.92701506520E+01 0.99933994233E+01
 0.10721410036E+02 0.11354214910E+02 0.11778331263E+02 0.11897677235E+02 0.11650148507E+02
 0.11020578373E+02 0.10047905679E+02 0.88247305098E+01 0.74881671973E+01 0.62022723741E+01
 0.51341988363E+01 0.44280223424E+01 0.41811581152E+01 0.44280223016E+01 0.51341987855E+01
 0.36760030376E+01 0.51381808384E+01 0.67833784562E+01 0.84151534499E+01 0.98536178420E+01
 0.10959604928E+02 0.11650148874E+02 0.11903986012E+02 0.11757819186E+02 0.11295242577E+02
 0.10630620455E+02 0.98901590237E+01 0.91714100189E+01 0.85166327973E+01 0.79569172900E+01
 0.75168609297E+01 0.72142042155E+01 0.70601848420E+01 0.70601848073E+01 0.72142041267E+01
 0.75168608260E+01 0.79569172172E+01 0.85166327867E+01 0.91714100717E+01 0.98901591069E+01
 0.10630620511E+02 0.11295242547E+02 0.11757819032E+02 0.11903985732E+02 0.11650148510E+02
 0.10959604553E+02 0.98536175346E+01 0.84151532704E+01 0.67833784244E+01 0.51381809275E+01
 0.36760031846E+01 0.25806242646E+01 0.19942061354E+01 0.19942060846E+01 0.25806241355E+01
 0.10684450468E+01 0.25838881913E+01 0.44347862768E+01 0.64027537759E+01 0.82707577678E+01
 0.98536178420E+01 0.11020578736E+02 0.11707096659E+02 0.11915723687E+02 0.11707883784E+02
 0.11189078576E+02 0.10490081215E+02 0.97451103115E+01 0.90402050725E+01 0.84137577909E+01
 0.78961456543E+01 0.75106233266E+01 0.72731896307E+01 0.71930499077E+01 0.72731895759E+01
 0.75106232440E+01 0.78961455861E+01 0.84137577750E+01 0.90402051247E+01 0.97451104158E+01
 0.10490081327E+02 0.11189078639E+02 0.11707883751E+02 0.11915723542E+02 0.11707096425E+02
 0.11020578472E+02 0.98536176227E+01 0.82707576590E+01 0.64027538098E+01 0.44347864390E+01
 0.25838884247E+01 0.10684452700E+01 0.75075334804E-01 -.27077635104E+00 0.75075199687E-01
 -.13509496530E+01 0.77421850449E-01 0.19993215178E+01 0.41889237837E+01 0.64027537759E+01
 0.84151534499E+01 0.10047905976E+02 0.11189263907E+02 0.11800760884E+02 0.11913007887E+02
 0.11613153642E+02 0.11026900388E+02 0.10297698601E+02 0.95589431584E+01 0.88780764554E+01
 0.82909221676E+01 0.78262596442E+01 0.75052260356E+01 0.73414186438E+01 0.73414186238E+01
 0.75052259864E+01 0.78262595943E+01 0.82909221500E+01 0.88780764931E+01 0.95589432530E+01
 0.10297698731E+02 0.11026900514E+02 0.11613153726E+02 0.11913007905E+02 0.11800760838E+02
 0.11189263830E+02 0.10047905918E+02 0.84151534624E+01 0.64027538907E+01 0.41889239991E+01
 0.19993217958E+01 0.77422126522E-01 -.13509494503E+01 -.21122245947E+01 -.21122246691E+01
 -.33139812130E+01 -.21108677384E+01 -.26757269956E+00 0.19993215178E+01 0.44347862768E+01
 0.67833784562E+01 0.88247307000E+01 0.10400006648E+02 0.11425732167E+02 0.11894924612E+02
 0.11867920141E+02 0.11456111993E+02 0.10801542172E+02 0.10054856385E+02 0.93338282622E+01
 0.86879168354E+01 0.81510056708E+01 0.77493787498E+01 0.75013349449E+01 0.74174992939E+01
 0.75013349285E+01 0.77493787278E+01 0.81510056607E+01 0.86879168540E+01 0.93338283187E+01
 0.10054856478E+02 0.10801542289E+02 0.11456112117E+02 0.11867920258E+02 0.11894924717E+02
 0.11425732267E+02 0.10400006760E+02 0.88247308451E+01 0.67833786475E+01 0.44347865132E+01
 0.19993217800E+01 -.26757244673E+00 -.21108675372E+01 -.33139811013E+01 -.37319917976E+01
 -.45934728192E+01 -.37314910935E+01 -.21108677384E+01 0.77421850449E-01 0.25838881913E+01
 0.51381808384E+01 0.74881672733E+01 0.94328701490E+01 0.10843706799E+02 0.11672104540E+02
 0.11944952938E+02 0.11751107886E+02 0.11222273927E+02 0.10511052203E+02 0.97659234658E+01
 0.90738185365E+01 0.84741035049E+01 0.79978261034E+01 0.76679723141E+01 0.74994271725E+01
 0.74994271752E+01 0.76679723213E+01 0.79978261133E+01 0.84741035164E+01 0.90738185511E+01
 0.97659234885E+01 0.10511052243E+02 0.11222273994E+02 0.11751107989E+02 0.11944953083E+02
 0.11672104726E+02 0.10843707017E+02 0.94328703853E+01 0.74881675101E+01 0.51381810585E+01
 0.25838883807E+01 0.77422000557E-01 -.21108676315E+01 -.37314910301E+01 -.45934727983E+01
 -.46025548628E+01 -.41671546014E+01 -.29133819844E+01 -.99057953463E+00 0.13777256531E+01
 0.39278104309E+01 0.63949196123E+01 0.85500107457E+01 0.10227245293E+02 0.11338392035E+02
 0.11874039368E+02 0.11894172618E+02 0.11511525600E+02 0.10870767040E+02 0.10126098804E+02
 0.94024555148E+01 0.87530175101E+01 0.82124470788E+01 0.78076976996E+01 0.75575735692E+01
 0.74730098365E+01 0.75575735947E+01 0.78076977362E+01 0.82124471049E+01 0.87530175073E+01
 0.94024554779E+01 0.10126098746E+02 0.10870766990E+02 0.11511525594E+02 0.11894172685E+02