   2   2   0   0
  0.1552238E+02  0.2800000E-09  0.2800000E-09  0.4572372E-09  0.5000000E-15
  1.000000000000000E-004
  CAR 
 Si beta-tin                             
     20.38947036     -5.51905920  301      9.31071225      1.00000000
     -5.519  0.0000E+00  0.0000E+00
     -5.433  0.0000E+00  0.0000E+00
     -5.346  0.0000E+00  0.0000E+00
     -5.260  0.0000E+00  0.0000E+00
     -5.174  0.0000E+00  0.0000E+00
     -5.087  0.0000E+00  0.0000E+00
     -5.001  0.0000E+00  0.0000E+00
     -4.915  0.1190E-17  0.1028E-18
     -4.828  0.1249E-13  0.1078E-14
     -4.742  0.3196E-10  0.2761E-11
     -4.655  0.1915E-07  0.1656E-08
     -4.569  0.2731E-05  0.2375E-06
     -4.483  0.9515E-04  0.8455E-05
     -4.396  0.8392E-03  0.8093E-04
     -4.310  0.1943E-02  0.2487E-03
     -4.224  0.1208E-02  0.3531E-03
     -4.137  0.3496E-03  0.3833E-03
     -4.051  0.1252E-02  0.4914E-03
     -3.965  0.3205E-02  0.7682E-03
     -3.878  0.2934E-02  0.1022E-02
     -3.792  0.9573E-03  0.1104E-02
     -3.705  0.3956E-03  0.1138E-02
     -3.619  0.1451E-02  0.1264E-02
     -3.533  0.1874E-02  0.1426E-02
     -3.446  0.1251E-02  0.1534E-02
     -3.360  0.2992E-02  0.1792E-02
     -3.274  0.3735E-02  0.2115E-02
     -3.187  0.1997E-02  0.2287E-02
     -3.101  0.2567E-02  0.2509E-02
     -3.015  0.4175E-02  0.2869E-02
     -2.928  0.5655E-02  0.3358E-02
     -2.842  0.4385E-02  0.3736E-02
     -2.755  0.2728E-02  0.3972E-02
     -2.669  0.1912E-02  0.4137E-02
     -2.583  0.2092E-02  0.4318E-02
     -2.496  0.1449E-02  0.4443E-02
     -2.410  0.1929E-02  0.4610E-02
     -2.324  0.3937E-02  0.4950E-02
     -2.237  0.2974E-02  0.5206E-02
     -2.151  0.3305E-02  0.5492E-02
     -2.065  0.4255E-02  0.5859E-02
     -1.978  0.4671E-02  0.6263E-02
     -1.892  0.6295E-02  0.6806E-02
     -1.806  0.4456E-02  0.7191E-02
     -1.719  0.2167E-02  0.7378E-02
     -1.633  0.1452E-02  0.7504E-02
     -1.546  0.2058E-02  0.7682E-02
     -1.460  0.1928E-02  0.7848E-02
     -1.374  0.3496E-02  0.8150E-02
     -1.287  0.3563E-02  0.8458E-02
     -1.201  0.2872E-02  0.8706E-02
     -1.115  0.5649E-02  0.9194E-02
     -1.028  0.8420E-02  0.9921E-02
     -0.942  0.9988E-02  0.1078E-01
     -0.856  0.6487E-02  0.1134E-01
     -0.769  0.1942E-02  0.1151E-01
     -0.683  0.3045E-02  0.1177E-01
     -0.596  0.5687E-02  0.1227E-01
     -0.510  0.3574E-02  0.1257E-01
     -0.424  0.2332E-02  0.1278E-01
     -0.337  0.3354E-02  0.1307E-01
     -0.251  0.3587E-02  0.1337E-01
     -0.165  0.4824E-02  0.1379E-01
     -0.078  0.6271E-02  0.1433E-01
      0.008  0.8340E-02  0.1505E-01
      0.094  0.9201E-02  0.1585E-01
      0.181  0.6607E-02  0.1642E-01
      0.267  0.3474E-02  0.1672E-01
      0.354  0.2400E-02  0.1693E-01
      0.440  0.2192E-02  0.1712E-01
      0.526  0.3912E-02  0.1745E-01
      0.613  0.5190E-02  0.1790E-01
      0.699  0.5187E-02  0.1835E-01
      0.785  0.4122E-02  0.1871E-01
      0.872  0.4280E-02  0.1907E-01
      0.958  0.7296E-02  0.1970E-01
      1.044  0.8570E-02  0.2044E-01
      1.131  0.5455E-02  0.2092E-01
      1.217  0.2329E-02  0.2112E-01
      1.304  0.2753E-02  0.2135E-01
      1.390  0.5136E-02  0.2180E-01
      1.476  0.6728E-02  0.2238E-01
      1.563  0.7349E-02  0.2301E-01
      1.649  0.8466E-02  0.2375E-01
      1.735  0.8611E-02  0.2449E-01
      1.822  0.6243E-02  0.2503E-01
      1.908  0.7865E-02  0.2571E-01
      1.994  0.7435E-02  0.2635E-01
      2.081  0.3171E-02  0.2662E-01
      2.167  0.6501E-03  0.2668E-01
      2.253  0.1450E-02  0.2680E-01
      2.340  0.3600E-02  0.2712E-01
      2.426  0.2845E-02  0.2736E-01
      2.513  0.2589E-02  0.2758E-01
      2.599  0.1008E-01  0.2846E-01
      2.685  0.1730E-01  0.2995E-01
      2.772  0.1147E-01  0.3094E-01
      2.858  0.7454E-02  0.3158E-01
      2.944  0.1029E-01  0.3247E-01
      3.031  0.8182E-02  0.3318E-01
      3.117  0.4599E-02  0.3358E-01
      3.203  0.1353E-02  0.3369E-01
      3.290  0.1416E-03  0.3371E-01
      3.376  0.5475E-03  0.3375E-01
      3.463  0.4355E-02  0.3413E-01
      3.549  0.1134E-01  0.3511E-01
      3.635  0.1031E-01  0.3600E-01
      3.722  0.4182E-02  0.3636E-01
      3.808  0.7332E-02  0.3699E-01
      3.894  0.1487E-01  0.3828E-01
      3.981  0.1147E-01  0.3927E-01
      4.067  0.5621E-02  0.3975E-01
      4.153  0.2378E-02  0.3996E-01
      4.240  0.5623E-03  0.4001E-01
      4.326  0.1133E-02  0.4011E-01
      4.413  0.4102E-02  0.4046E-01
      4.499  0.7517E-02  0.4111E-01
      4.585  0.7225E-02  0.4173E-01
      4.672  0.7392E-02  0.4237E-01
      4.758  0.1114E-01  0.4333E-01
      4.844  0.8059E-02  0.4403E-01
      4.931  0.6919E-02  0.4463E-01
      5.017  0.1086E-01  0.4556E-01
      5.103  0.7315E-02  0.4620E-01
      5.190  0.3734E-02  0.4652E-01
      5.276  0.6403E-02  0.4707E-01
      5.363  0.9305E-02  0.4788E-01
      5.449  0.9581E-02  0.4870E-01
      5.535  0.5482E-02  0.4918E-01
      5.622  0.3426E-02  0.4947E-01
      5.708  0.5512E-02  0.4995E-01
      5.794  0.7181E-02  0.5057E-01
      5.881  0.1016E-01  0.5145E-01
      5.967  0.1243E-01  0.5252E-01
      6.053  0.1126E-01  0.5349E-01
      6.140  0.6425E-02  0.5405E-01
      6.226  0.3884E-02  0.5438E-01
      6.313  0.6647E-02  0.5496E-01
      6.399  0.1020E-01  0.5584E-01
      6.485  0.8547E-02  0.5657E-01
      6.572  0.6905E-02  0.5717E-01
      6.658  0.5331E-02  0.5763E-01
      6.744  0.8923E-02  0.5840E-01
      6.831  0.1131E-01  0.5938E-01
      6.917  0.8246E-02  0.6009E-01
      7.003  0.4130E-02  0.6045E-01
      7.090  0.5250E-02  0.6090E-01
      7.176  0.9103E-02  0.6169E-01
      7.262  0.9823E-02  0.6254E-01
      7.349  0.1412E-01  0.6375E-01
      7.435  0.1546E-01  0.6509E-01
      7.522  0.9993E-02  0.6595E-01
      7.608  0.6522E-02  0.6652E-01
      7.694  0.1068E-01  0.6744E-01
      7.781  0.1167E-01  0.6845E-01
      7.867  0.6210E-02  0.6898E-01
      7.953  0.6880E-02  0.6958E-01
      8.040  0.8644E-02  0.7032E-01
      8.126  0.8256E-02  0.7104E-01
      8.212  0.6857E-02  0.7163E-01
      8.299  0.2607E-02  0.7185E-01
      8.385  0.2934E-02  0.7211E-01
      8.472  0.9516E-02  0.7293E-01
      8.558  0.1638E-01  0.7434E-01
      8.644  0.1574E-01  0.7570E-01
      8.731  0.7287E-02  0.7633E-01
      8.817  0.5182E-02  0.7678E-01
      8.903  0.7258E-02  0.7741E-01
      8.990  0.8960E-02  0.7818E-01
      9.076  0.8034E-02  0.7887E-01
      9.162  0.5364E-02  0.7934E-01
      9.249  0.3683E-02  0.7966E-01
      9.335  0.6281E-02  0.8020E-01
      9.422  0.9575E-02  0.8103E-01
      9.508  0.8904E-02  0.8179E-01
      9.594  0.1061E-01  0.8271E-01
      9.681  0.1111E-01  0.8367E-01
      9.767  0.1092E-01  0.8461E-01
      9.853  0.6187E-02  0.8515E-01
      9.940  0.4871E-02  0.8557E-01
     10.026  0.9193E-02  0.8636E-01
     10.112  0.1050E-01  0.8727E-01
     10.199  0.7914E-02  0.8795E-01
     10.285  0.5888E-02  0.8846E-01
     10.372  0.7713E-02  0.8913E-01
     10.458  0.1411E-01  0.9034E-01
     10.544  0.2023E-01  0.9209E-01
     10.631  0.1755E-01  0.9361E-01
     10.717  0.8743E-02  0.9436E-01
     10.803  0.6167E-02  0.9490E-01
     10.890  0.9649E-02  0.9573E-01
     10.976  0.9080E-02  0.9651E-01
     11.062  0.9264E-02  0.9731E-01
     11.149  0.1293E-01  0.9843E-01
     11.235  0.1588E-01  0.9980E-01
     11.321  0.1379E-01  0.1010E+00
     11.408  0.9730E-02  0.1018E+00
     11.494  0.8694E-02  0.1026E+00
     11.581  0.1015E-01  0.1035E+00
     11.667  0.7311E-02  0.1041E+00
     11.753  0.3462E-02  0.1044E+00
     11.840  0.2419E-02  0.1046E+00
     11.926  0.5474E-02  0.1051E+00
     12.012  0.1310E-01  0.1062E+00
     12.099  0.1361E-01  0.1074E+00
     12.185  0.1030E-01  0.1083E+00
     12.271  0.1667E-01  0.1097E+00
     12.358  0.2566E-01  0.1119E+00
     12.444  0.1676E-01  0.1134E+00
     12.531  0.3646E-02  0.1137E+00
     12.617  0.9039E-03  0.1138E+00
     12.703  0.4125E-02  0.1141E+00
     12.790  0.8401E-02  0.1148E+00
     12.876  0.9018E-02  0.1156E+00
     12.962  0.1158E-01  0.1166E+00
     13.049  0.1452E-01  0.1179E+00
     13.135  0.1321E-01  0.1190E+00
     13.221  0.1249E-01  0.1201E+00
     13.308  0.9586E-02  0.1209E+00
     13.394  0.7318E-02  0.1216E+00
     13.481  0.1014E-01  0.1224E+00
     13.567  0.9346E-02  0.1232E+00
     13.653  0.7033E-02  0.1238E+00
     13.740  0.8400E-02  0.1246E+00
     13.826  0.1025E-01  0.1255E+00
     13.912  0.5942E-02  0.1260E+00
     13.999  0.6102E-02  0.1265E+00
     14.085  0.1067E-01  0.1274E+00
     14.171  0.1651E-01  0.1288E+00
     14.258  0.1966E-01  0.1305E+00
     14.344  0.1475E-01  0.1318E+00
     14.431  0.1005E-01  0.1327E+00
     14.517  0.6539E-02  0.1333E+00
     14.603  0.6550E-02  0.1338E+00
     14.690  0.7537E-02  0.1345E+00
     14.776  0.7667E-02  0.1351E+00
     14.862  0.7569E-02  0.1358E+00
     14.949  0.1103E-01  0.1367E+00
     15.035  0.1376E-01  0.1379E+00
     15.121  0.9041E-02  0.1387E+00
     15.208  0.2978E-02  0.1390E+00
     15.294  0.3314E-02  0.1392E+00
     15.380  0.7433E-02  0.1399E+00
     15.467  0.1209E-01  0.1409E+00
     15.553  0.1395E-01  0.1421E+00
     15.640  0.2029E-01  0.1439E+00
     15.726  0.2350E-01  0.1459E+00
     15.812  0.1331E-01  0.1471E+00
     15.899  0.7279E-02  0.1477E+00
     15.985  0.4303E-02  0.1481E+00
     16.071  0.1427E-02  0.1482E+00
     16.158  0.1835E-02  0.1484E+00
     16.244  0.1944E-02  0.1485E+00
     16.330  0.4674E-02  0.1489E+00
     16.417  0.1530E-01  0.1502E+00
     16.503  0.1886E-01  0.1519E+00
     16.590  0.9751E-02  0.1527E+00
     16.676  0.5924E-02  0.1532E+00
     16.762  0.5685E-02  0.1537E+00
     16.849  0.4407E-02  0.1541E+00
     16.935  0.6774E-02  0.1547E+00
     17.021  0.9262E-02  0.1555E+00
     17.108  0.4452E-02  0.1559E+00
     17.194  0.8026E-03  0.1559E+00
     17.280  0.1294E-02  0.1560E+00
     17.367  0.4240E-02  0.1564E+00
     17.453  0.8170E-02  0.1571E+00
     17.540  0.7001E-02  0.1577E+00
     17.626  0.3339E-02  0.1580E+00
     17.712  0.1327E-02  0.1581E+00
     17.799  0.2127E-03  0.1581E+00
     17.885  0.9560E-05  0.1581E+00
     17.971  0.2283E-04  0.1582E+00
     18.058  0.3715E-03  0.1582E+00
     18.144  0.1592E-02  0.1583E+00
     18.230  0.2225E-02  0.1585E+00
     18.317  0.2892E-02  0.1588E+00
     18.403  0.3709E-02  0.1591E+00
     18.490  0.1781E-02  0.1592E+00
     18.576  0.2780E-03  0.1593E+00
     18.662  0.3265E-03  0.1593E+00
     18.749  0.1473E-02  0.1594E+00
     18.835  0.1825E-02  0.1596E+00
     18.921  0.6042E-03  0.1596E+00
     19.008  0.6040E-04  0.1596E+00
     19.094  0.1983E-03  0.1596E+00
     19.180  0.1203E-02  0.1598E+00
     19.267  0.1943E-02  0.1599E+00
     19.353  0.8392E-03  0.1600E+00
     19.439  0.9515E-04  0.1600E+00
     19.526  0.2731E-05  0.1600E+00
     19.612  0.1915E-07  0.1600E+00
     19.699  0.3196E-10  0.1600E+00
     19.785  0.1249E-13  0.1600E+00
     19.871  0.9523E-18  0.1600E+00
     19.958  0.0000E+00  0.1600E+00
     20.044  0.0000E+00  0.1600E+00
     20.130  0.0000E+00  0.1600E+00
     20.217  0.0000E+00  0.1600E+00
     20.303  0.0000E+00  0.1600E+00
     20.389  0.0000E+00  0.1600E+00
