    2    2  100    1
  0.1552238E+02  0.2800000E-09  0.2800000E-09  0.4572372E-09  0.5000000E-15
  1.000000000000000E-004
  CAR 
 Si beta-tin                             
      8     36      8
 
  0.8333333E-01  0.8333333E-01  0.8333333E-01  0.1851852E-01
    1       -4.008792   1.000000
    2        1.968494   1.000000
    3        4.378081   1.000000
    4       12.716362   0.000000
    5       13.436358   0.000000
    6       17.596931   0.000000
    7       18.151677   0.000000
    8       18.375836   0.000000
 
  0.2500000E+00  0.8333333E-01  0.8333333E-01  0.3703704E-01
    1       -2.356356   1.000000
    2        3.577781   1.000000
    3        5.943049   1.000000
    4        7.348063   1.000000
    5       11.072782   0.000000
    6       12.957259   0.000000
    7       15.020465   0.000000
    8       16.486449   0.000000
 
  0.4166667E+00  0.8333333E-01  0.8333333E-01  0.3703704E-01
    1        0.520721   1.000000
    2        2.662303   1.000000
    3        6.378761   1.000000
    4        8.154747   1.000000
    5        8.959025   1.000000
    6       10.159992   0.000000
    7       10.843168   0.000000
    8       15.596364   0.000000
 
 -0.4166667E+00  0.8333333E-01  0.8333333E-01  0.3703704E-01
    1       -1.051022   1.000000
    2        4.750388   1.000000
    3        4.938482   1.000000
    4        7.166906   1.000000
    5       10.418475   0.000000
    6       10.638516   0.000000
    7       12.820304   0.000000
    8       15.890295   0.000000
 
 -0.2500000E+00  0.8333333E-01  0.8333333E-01  0.3703704E-01
    1       -3.345605   1.000000
    2        2.615146   1.000000
    3        5.008439   1.000000
    4       10.073152   0.000000
    5       12.007087   0.000000
    6       15.466003   0.000000
    7       16.937131   0.000000
    8       17.443987   0.000000
 
 -0.8333333E-01  0.8333333E-01  0.8333333E-01  0.1851852E-01
    1       -4.341399   1.000000
    2        1.643891   1.000000
    3        4.061445   1.000000
    4       14.368655   0.000000
    5       15.366438   0.000000
    6       17.453787   0.000000
    7       18.762659   0.000000
    8       19.211810   0.000000
 
  0.2500000E+00  0.2500000E+00  0.8333333E-01  0.1851852E-01
    1       -0.078746   1.000000
    2        5.323394   1.000000
    3        5.820468   1.000000
    4        6.319680   1.000000
    5        8.073627   1.000000
    6       11.036657   0.000000
    7       11.862460   0.000000
    8       13.233543   0.000000
 
  0.4166667E+00  0.2500000E+00  0.8333333E-01  0.3703704E-01
    1        1.483874   1.000000
    2        3.521583   1.000000
    3        5.663326   1.000000
    4        7.310855   1.000000
    5        9.069824   0.999671
    6        9.714724   0.000000
    7       10.947546   0.000000
    8       12.008533   0.000000
 
 -0.4166667E+00  0.2500000E+00  0.8333333E-01  0.3703704E-01
    1       -1.374071   1.000000
    2        4.529831   1.000000
    3        6.347048   1.000000
    4        6.881350   1.000000
    5        8.438909   1.000000
    6       12.007796   0.000000
    7       13.631463   0.000000
    8       14.537343   0.000000
 
 -0.2500000E+00  0.2500000E+00  0.8333333E-01  0.1851852E-01
    1       -3.015163   1.000000
    2        2.936979   1.000000
    3        5.321557   1.000000
    4        8.595775   1.000000
    5       13.164801   0.000000
    6       14.084501   0.000000
    7       15.538556   0.000000
    8       16.400569   0.000000
 
  0.4166667E+00  0.4166667E+00  0.8333333E-01  0.1851852E-01
    1        1.473025   1.000000
    2        2.342758   1.000000
    3        7.308823   1.000000
    4        7.774488   1.000000
    5        8.004375   1.000000
    6        9.632558   0.000003
    7       10.499332   0.000000
    8       13.502293   0.000000
 
 -0.4166667E+00  0.4166667E+00  0.8333333E-01  0.1851852E-01
    1       -0.410928   1.000000
    2        3.581412   1.000000
    3        5.475773   1.000000
    4        7.721082   1.000000
    5        9.435624   0.038654
    6       11.690761   0.000000
    7       12.004034   0.000000
    8       14.393155   0.000000
 
  0.8333333E-01  0.8333333E-01  0.2500000E+00  0.1851852E-01
    1       -3.603390   1.000000
    2        0.006771   1.000000
    3        7.056525   1.000000
    4       13.077719   0.000000
    5       13.758675   0.000000
    6       16.148677   0.000000
    7       16.787289   0.000000
    8       16.972510   0.000000
 
  0.2500000E+00  0.8333333E-01  0.2500000E+00  0.3703704E-01
    1       -1.953934   1.000000
    2        1.629350   1.000000
    3        7.717123   1.000000
    4        8.566682   1.000000
    5       11.161544   0.000000
    6       11.469473   0.000000
    7       14.709566   0.000000
    8       16.692816   0.000000
 
  0.4166667E+00  0.8333333E-01  0.2500000E+00  0.3703704E-01
    1        0.918173   1.000000
    2        3.048936   1.000000
    3        4.465138   1.000000
    4        6.521802   1.000000
    5       10.509577   0.000000
    6       11.331829   0.000000
    7       13.031477   0.000000
    8       14.263496   0.000000
 
 -0.4166667E+00  0.8333333E-01  0.2500000E+00  0.3703704E-01
    1       -0.650969   1.000000
    2        2.908313   1.000000
    3        5.231689   1.000000
    4        8.557874   1.000000
    5        9.967148   0.000000
    6       10.837816   0.000000
    7       14.012494   0.000000
    8       15.404358   0.000000
 
 -0.2500000E+00  0.8333333E-01  0.2500000E+00  0.3703704E-01
    1       -2.941392   1.000000
    2        0.658240   1.000000
    3        7.669763   1.000000
    4       10.443838   0.000000
    5       12.355963   0.000000
    6       13.772892   0.000000
    7       15.631686   0.000000
    8       16.995450   0.000000
 
 -0.8333333E-01  0.8333333E-01  0.2500000E+00  0.1851852E-01
    1       -3.935380   1.000000
    2       -0.320043   1.000000
    3        6.746537   1.000000
    4       14.703232   0.000000
    5       15.706299   0.000000
    6       16.380105   0.000000
    7       17.428440   0.000000
    8       18.323081   0.000000
 
  0.2500000E+00  0.2500000E+00  0.2500000E+00  0.1851852E-01
    1        0.319477   1.000000
    2        3.859021   1.000000
    3        5.747310   1.000000
    4        6.699390   1.000000
    5        9.180499   0.967225
    6        9.744429   0.000000
    7       11.186261   0.000000
    8       15.565624   0.000000
 
  0.4166667E+00  0.2500000E+00  0.2500000E+00  0.3703704E-01
    1        1.879216   1.000000
    2        3.907495   1.000000
    3        5.402377   1.000000
    4        6.053398   1.000000
    5        7.377444   1.000000
    6        9.371943   0.193263
    7       12.318879   0.000000
    8       14.192461   0.000000
 
 -0.4166667E+00  0.2500000E+00  0.2500000E+00  0.3703704E-01
    1       -0.973424   1.000000
    2        2.592649   1.000000
    3        6.736234   1.000000
    4        8.807174   1.000000
    5        9.347074   0.303543
    6       10.299950   0.000000
    7       12.290062   0.000000
    8       16.439927   0.000000
 
 -0.2500000E+00  0.2500000E+00  0.2500000E+00  0.1851852E-01
    1       -2.611538   1.000000
    2        0.982717   1.000000
    3        7.967699   1.000000
    4        8.974614   0.999999
    5       12.373340   0.000000
    6       13.518625   0.000000
    7       15.696857   0.000000
    8       16.600891   0.000000
 
  0.4166667E+00  0.4166667E+00  0.2500000E+00  0.1851852E-01
    1        1.869741   1.000000
    2        2.731616   1.000000
    3        5.405756   1.000000
    4        6.201837   1.000000
    5        8.143023   1.000000
    6       11.278961   0.000000
    7       12.199244   0.000000
    8       13.486739   0.000000
 
 -0.4166667E+00  0.4166667E+00  0.2500000E+00  0.1851852E-01
    1       -0.011990   1.000000
    2        3.519371   1.000000
    3        3.998267   1.000000
    4        7.407317   1.000000
    5       10.502584   0.000000
    6       12.360719   0.000000
    7       13.996574   0.000000
    8       14.826787   0.000000
 
  0.8333333E-01  0.8333333E-01  0.4166667E+00  0.1851852E-01
    1       -2.795025   1.000000
    2       -1.588789   1.000000
    3       10.059034   0.000000
    4       13.198041   0.000000
    5       13.792362   0.000000
    6       14.612437   0.000000
    7       15.002169   0.000000
    8       15.678758   0.000000
 
  0.2500000E+00  0.8333333E-01  0.4166667E+00  0.3703704E-01
    1       -1.151517   1.000000
    2        0.045783   1.000000
    3        8.473892   1.000000
    4        9.554941   0.000276
    5       11.586057   0.000000
    6       12.146019   0.000000
    7       13.411739   0.000000
    8       14.888196   0.000000
 
  0.4166667E+00  0.8333333E-01  0.4166667E+00  0.3703704E-01
    1        1.709870   1.000000
    2        2.884180   1.000000
    3        3.847498   1.000000
    4        5.000025   1.000000
    5       11.242713   0.000000
    6       12.269422   0.000000
    7       14.230321   0.000000
    8       15.715464   0.000000
 
 -0.4166667E+00  0.8333333E-01  0.4166667E+00  0.3703704E-01
    1        0.146606   1.000000
    2        1.336306   1.000000
    3        5.999821   1.000000
    4        7.140129   1.000000
    5       11.537118   0.000000
    6       12.322429   0.000000
    7       13.199993   0.000000
    8       15.675269   0.000000
 
 -0.2500000E+00  0.8333333E-01  0.4166667E+00  0.3703704E-01
    1       -2.135383   1.000000
    2       -0.932669   1.000000
    3       10.587003   0.000000
    4       11.174104   0.000000
    5       12.354306   0.000000
    6       12.936759   0.000000
    7       14.173614   0.000000
    8       14.366693   0.000000
 
 -0.8333333E-01  0.8333333E-01  0.4166667E+00  0.1851852E-01
    1       -3.125842   1.000000
    2       -1.917866   1.000000
    3        9.767718   0.000000
    4       13.035941   0.000000
    5       15.441691   0.000000
    6       16.373580   0.000000
    7       16.417013   0.000000
    8       17.319977   0.000000
 
  0.2500000E+00  0.2500000E+00  0.4166667E+00  0.1851852E-01
    1        1.113264   1.000000
    2        2.296934   1.000000
    3        6.514931   1.000000
    4        7.441461   1.000000
    5        7.678078   1.000000
    6        8.560319   1.000000
    7       13.794510   0.000000
    8       16.443776   0.000000
 
  0.4166667E+00  0.2500000E+00  0.4166667E+00  0.3703704E-01
    1        2.666490   1.000000
    2        3.831985   1.000000
    3        4.707136   1.000000
    4        5.853606   1.000000
    5        6.814740   1.000000
    6        7.939349   1.000000
    7       15.047731   0.000000
    8       16.442128   0.000000
 
 -0.4166667E+00  0.2500000E+00  0.4166667E+00  0.3703704E-01
    1       -0.174662   1.000000
    2        1.017042   1.000000
    3        7.498279   1.000000
    4        8.621163   1.000000
    5        9.552905   0.000307
    6       10.572742   0.000000
    7       12.740372   0.000000
    8       15.673452   0.000000
 
 -0.2500000E+00  0.2500000E+00  0.4166667E+00  0.1851852E-01
    1       -1.806729   1.000000
    2       -0.605792   1.000000
    3        9.701942   0.000000
    4       10.520878   0.000000
    5       11.342156   0.000000
    6       14.132114   0.000000
    7       14.222416   0.000000
    8       15.263790   0.000000
 
  0.4166667E+00  0.4166667E+00  0.4166667E+00  0.1851852E-01
    1        2.658645   1.000000
    2        3.483640   1.000000
    3        3.874680   1.000000
    4        4.679767   1.000000
    5        8.891441   1.000000
    6        9.989696   0.000000
    7       14.943900   0.000000
    8       15.858693   0.000000
 
 -0.4166667E+00  0.4166667E+00  0.4166667E+00  0.1851852E-01
    1        0.783198   1.000000
    2        1.968518   1.000000
    3        4.756304   1.000000
    4        5.908290   1.000000
    5       13.071419   0.000000
    6       13.275999   0.000000
    7       14.127337   0.000000
    8       14.966463   0.000000
