       N       E                     dE             d eps       ncg     rms          rms(c)
DAV:   1     0.294093867689E+01    0.29409E+01   -0.30915E+03   576   0.698E+02
DAV:   2    -0.964447042047E+01   -0.12585E+02   -0.12168E+02   848   0.703E+01
DAV:   3    -0.983794011916E+01   -0.19347E+00   -0.19203E+00   808   0.994E+00
DAV:   4    -0.983852295499E+01   -0.58284E-03   -0.58280E-03   832   0.510E-01
DAV:   5    -0.983852373995E+01   -0.78496E-06   -0.78519E-06   768   0.142E-02    0.326E+00
DAV:   6    -0.981491496977E+01    0.23609E-01   -0.88617E-03   656   0.578E-01    0.179E+00
DAV:   7    -0.980192812288E+01    0.12987E-01   -0.16322E-02   760   0.774E-01    0.142E-01
DAV:   8    -0.980184273755E+01    0.85385E-04   -0.12284E-04   840   0.953E-02    0.158E-02
DAV:   9    -0.980184349332E+01   -0.75577E-06   -0.18106E-06   480   0.106E-02
   1 F= -.98018435E+01 E0= -.98001560E+01  d E =-.980184E+01
       N       E                     dE             d eps       ncg     rms          rms(c)
DAV:   1    -0.981219783188E+01   -0.10355E-01   -0.13197E-01   808   0.215E+00    0.212E-01
DAV:   2    -0.981116363143E+01    0.10342E-02   -0.24194E-03   640   0.401E-01    0.120E-01
DAV:   3    -0.981060065216E+01    0.56298E-03   -0.14067E-03   816   0.205E-01    0.111E-02
DAV:   4    -0.981060530728E+01   -0.46551E-05   -0.51476E-05   592   0.569E-02
   2 F= -.98106053E+01 E0= -.98089357E+01  d E =-.876181E-02
       N       E                     dE             d eps       ncg     rms          rms(c)
DAV:   1    -0.982101807625E+01   -0.10417E-01   -0.22727E-01   856   0.289E+00    0.290E-01
DAV:   2    -0.981915414930E+01    0.18639E-02   -0.41744E-03   632   0.525E-01    0.164E-01
DAV:   3    -0.981815187116E+01    0.10023E-02   -0.24855E-03   832   0.273E-01    0.152E-02
DAV:   4    -0.981816004943E+01   -0.81783E-05   -0.89255E-05   648   0.760E-02
   3 F= -.98181600E+01 E0= -.98163054E+01  d E =-.163166E-01
       N       E                     dE             d eps       ncg     rms          rms(c)
DAV:   1    -0.981817396694E+01   -0.22096E-04   -0.36833E-04   896   0.117E-01    0.102E-02
DAV:   2    -0.981817233850E+01    0.16284E-05   -0.56894E-06   440   0.203E-02
   4 F= -.98181723E+01 E0= -.98163244E+01  d E =-.163288E-01
