 vasp.5.4.1 24Jun15 (build Jul 19 2016 16:50:41) complex                        
  
 executed on           IFC91_ompi date 2019.10.10  11:16:05
 running on    4 total cores
 distrk:  each k-point on    4 cores,    1 groups
 distr:  one band on NCORES_PER_BAND=   1 cores,    4 groups


--------------------------------------------------------------------------------------------------------


 INCAR:
 POTCAR:    PAW_PBE Si 05Jan2001                  
 POTCAR:    PAW_PBE Si 05Jan2001                  
   VRHFIN = Si: s2p2                                                            
   LEXCH  = PE                                                                  
   EATOM  =   103.0669 eV,    7.5752 Ry                                         
                                                                                
   TITEL  = PAW_PBE Si 05Jan2001                                                
   LULTRA =        F    use ultrasoft PP ?                                      
   IUNSCR =        1    unscreen: 0-lin 1-nonlin 2-no                           
   RPACOR =    1.500    partial core radius                                     
   POMASS =   28.085; ZVAL   =    4.000    mass and valenz                      
   RCORE  =    1.900    outmost cutoff radius                                   
   RWIGS  =    2.480; RWIGS  =    1.312    wigner-seitz radius (au A)           
   ENMAX  =  245.345; ENMIN  =  184.009 eV                                      
   ICORE  =        2    local potential                                         
   LCOR   =        T    correct aug charges                                     
   LPAW   =        T    paw PP                                                  
   EAUG   =  322.069                                                            
   DEXC   =    0.000                                                            
   RMAX   =    1.950    core radius for proj-oper                               
   RAUG   =    1.300    factor for augmentation sphere                          
   RDEP   =    1.993    radius for radial grids                                 
   RDEPT  =    1.837    core radius for aug-charge                              
                                                                                
   Atomic configuration                                                         
    6 entries                                                                   
     n  l   j            E        occ.                                          
     1  0  0.50     -1785.8828   2.0000                                         
     2  0  0.50      -139.4969   2.0000                                         
     2  1  1.50       -95.5546   6.0000                                         
     3  0  0.50       -10.8127   2.0000                                         
     3  1  0.50        -4.0811   2.0000                                         
     3  2  1.50        -4.0817   0.0000                                         
   Description                                                                  
     l       E           TYP  RCUT    TYP  RCUT                                 
     0    -10.8127223     23  1.900                                             
     0     -7.6451159     23  1.900                                             
     1     -4.0811372     23  1.900                                             
     1      2.4879257     23  1.900                                             
     2     -4.0817478      7  1.900                                             
  local pseudopotential read in
  partial core-charges read in
  partial kinetic energy density read in
  atomic valenz-charges read in
  non local Contribution for L=           0  read in
    real space projection operators read in
  non local Contribution for L=           0  read in
    real space projection operators read in
  non local Contribution for L=           1  read in
    real space projection operators read in
  non local Contribution for L=           1  read in
    real space projection operators read in
    PAW grid and wavefunctions read in
 
   number of l-projection  operators is LMAX  =           4
   number of lm-projection operators is LMMAX =           8
 
  PAW_PBE Si 05Jan2001                  :
 energy of atom  1       EATOM= -103.0669
 kinetic energy error for atom=    0.0009 (will be added to EATOM!!)
 
 
 POSCAR: Si HCP                                  
  positions in direct lattice
  No initial velocities read in
 exchange correlation table for  LEXCH =        8
   RHO(1)=    0.500       N(1)  =     2000
   RHO(2)=  100.500       N(2)  =     4000
 


--------------------------------------------------------------------------------------------------------


 ion  position               nearest neighbor table
   1  0.000  0.000  0.000-   2 2.80   2 2.80   2 2.80   2 2.80   2 2.80   2 2.80
   2  0.333  0.667  0.500-   1 2.80   1 2.80   1 2.80   1 2.80   1 2.80   1 2.80
 
  LATTYP: Found a hexagonal cell.
 ALAT       =     2.8000000000
 C/A-ratio  =     1.6329900000
  
  Lattice vectors:
  
 A1 = (   2.8000000000,   0.0000000000,   0.0000000000)
 A2 = (  -1.4000000000,   2.4248711306,   0.0000000000)
 A3 = (   0.0000000000,   0.0000000000,   4.5723720000)


Analysis of symmetry for initial positions (statically):
=====================================================================
 Subroutine PRICEL returns:
 Original cell was already a primitive cell.
 

 Routine SETGRP: Setting up the symmetry group for a 
 hexagonal supercell.


 Subroutine GETGRP returns: Found 24 space group operations
 (whereof 12 operations were pure point group operations)
 out of a pool of 24 trial point group operations.


The static configuration has the point symmetry D_3h.
 The point group associated with its full space group is D_6h.


Analysis of symmetry for dynamics (positions and initial velocities):
=====================================================================
 Subroutine PRICEL returns:
 Original cell was already a primitive cell.
 

 Routine SETGRP: Setting up the symmetry group for a 
 hexagonal supercell.


 Subroutine GETGRP returns: Found 24 space group operations
 (whereof 12 operations were pure point group operations)
 out of a pool of 24 trial point group operations.


The dynamic configuration has the point symmetry D_3h.
 The point group associated with its full space group is D_6h.


 Subroutine INISYM returns: Found 24 space group operations
 (whereof 12 operations are pure point group operations),
 and found     1 'primitive' translations

 
 
 KPOINTS: K-Points                                

Automatic generation of k-mesh.
Space group operators:
 irot       det(A)        alpha          n_x          n_y          n_z        tau_x        tau_y        tau_z
    1     1.000000     0.000000     1.000000     0.000000     0.000000     0.000000     0.000000     0.000000
    2    -1.000000    60.000000     0.000000     0.000000    -1.000000     0.000000     0.000000     0.000000
    3     1.000000   120.000000     0.000000     0.000000    -1.000000     0.000000     0.000000     0.000000
    4    -1.000000   180.000000     0.000000     0.000000     1.000000     0.000000     0.000000     0.000000
    5     1.000000   120.000000     0.000000     0.000000     1.000000     0.000000     0.000000     0.000000
    6    -1.000000    60.000000     0.000000     0.000000     1.000000     0.000000     0.000000     0.000000
    7    -1.000000   180.000000     1.000000     0.000000     0.000000     0.000000     0.000000     0.000000
    8     1.000000   180.000000     0.866025    -0.500000     0.000000     0.000000     0.000000     0.000000
    9    -1.000000   180.000000     0.500000    -0.866025     0.000000     0.000000     0.000000     0.000000
   10     1.000000   180.000000     0.000000     1.000000     0.000000     0.000000     0.000000     0.000000
   11    -1.000000   180.000000    -0.500000    -0.866025     0.000000     0.000000     0.000000     0.000000
   12     1.000000   180.000000     0.866025     0.500000     0.000000     0.000000     0.000000     0.000000
   13    -1.000000     0.000000     1.000000     0.000000     0.000000     0.333333     0.666667     0.500000
   14     1.000000    60.000000     0.000000     0.000000    -1.000000     0.333333     0.666667     0.500000
   15    -1.000000   120.000000     0.000000     0.000000    -1.000000     0.333333     0.666667     0.500000
   16     1.000000   180.000000     0.000000     0.000000     1.000000     0.333333     0.666667     0.500000
   17    -1.000000   120.000000     0.000000     0.000000     1.000000     0.333333     0.666667     0.500000
   18     1.000000    60.000000     0.000000     0.000000     1.000000     0.333333     0.666667     0.500000
   19     1.000000   180.000000     1.000000     0.000000     0.000000     0.333333     0.666667     0.500000
   20    -1.000000   180.000000     0.866025    -0.500000     0.000000     0.333333     0.666667     0.500000
   21     1.000000   180.000000     0.500000    -0.866025     0.000000     0.333333     0.666667     0.500000
   22    -1.000000   180.000000     0.000000     1.000000     0.000000     0.333333     0.666667     0.500000
   23     1.000000   180.000000    -0.500000    -0.866025     0.000000     0.333333     0.666667     0.500000
   24    -1.000000   180.000000     0.866025     0.500000     0.000000     0.333333     0.666667     0.500000
 
 Subroutine IBZKPT returns following result:
 ===========================================
 
 Found     36 irreducible k-points:
 
 Following reciprocal coordinates:
            Coordinates               Weight
  0.083333  0.083333  0.083333     96.000000
  0.250000  0.083333  0.083333    192.000000
  0.416667  0.083333  0.083333    192.000000
 -0.416667  0.083333  0.083333    192.000000
 -0.250000  0.083333  0.083333    192.000000
 -0.083333  0.083333  0.083333     96.000000
  0.250000  0.250000  0.083333     96.000000
  0.416667  0.250000  0.083333    192.000000
 -0.416667  0.250000  0.083333    192.000000
 -0.250000  0.250000  0.083333     96.000000
  0.416667  0.416667  0.083333     96.000000
 -0.416667  0.416667  0.083333     96.000000
  0.083333  0.083333  0.250000     96.000000
  0.250000  0.083333  0.250000    192.000000
  0.416667  0.083333  0.250000    192.000000
 -0.416667  0.083333  0.250000    192.000000
 -0.250000  0.083333  0.250000    192.000000
 -0.083333  0.083333  0.250000     96.000000
  0.250000  0.250000  0.250000     96.000000
  0.416667  0.250000  0.250000    192.000000
 -0.416667  0.250000  0.250000    192.000000
 -0.250000  0.250000  0.250000     96.000000
  0.416667  0.416667  0.250000     96.000000
 -0.416667  0.416667  0.250000     96.000000
  0.083333  0.083333  0.416667     96.000000
  0.250000  0.083333  0.416667    192.000000
  0.416667  0.083333  0.416667    192.000000
 -0.416667  0.083333  0.416667    192.000000
 -0.250000  0.083333  0.416667    192.000000
 -0.083333  0.083333  0.416667     96.000000
  0.250000  0.250000  0.416667     96.000000
  0.416667  0.250000  0.416667    192.000000
 -0.416667  0.250000  0.416667    192.000000
 -0.250000  0.250000  0.416667     96.000000
  0.416667  0.416667  0.416667     96.000000
 -0.416667  0.416667  0.416667     96.000000
 
 Following cartesian coordinates:
            Coordinates               Weight
  0.083333  0.144338  0.051031     96.000000
  0.250000  0.240563  0.051031    192.000000
  0.416667  0.336788  0.051031    192.000000
 -0.416667 -0.144338  0.051031    192.000000
 -0.250000 -0.048113  0.051031    192.000000
 -0.083333  0.048113  0.051031     96.000000
  0.250000  0.433013  0.051031     96.000000
  0.416667  0.529238  0.051031    192.000000
 -0.416667  0.048113  0.051031    192.000000
 -0.250000  0.144338  0.051031     96.000000
  0.416667  0.721688  0.051031     96.000000
 -0.416667  0.240563  0.051031     96.000000
  0.083333  0.144338  0.153093     96.000000
  0.250000  0.240563  0.153093    192.000000
  0.416667  0.336788  0.153093    192.000000
 -0.416667 -0.144338  0.153093    192.000000
 -0.250000 -0.048113  0.153093    192.000000
 -0.083333  0.048113  0.153093     96.000000
  0.250000  0.433013  0.153093     96.000000
  0.416667  0.529238  0.153093    192.000000
 -0.416667  0.048113  0.153093    192.000000
 -0.250000  0.144338  0.153093     96.000000
  0.416667  0.721688  0.153093     96.000000
 -0.416667  0.240563  0.153093     96.000000
  0.083333  0.144338  0.255156     96.000000
  0.250000  0.240563  0.255156    192.000000
  0.416667  0.336788  0.255156    192.000000
 -0.416667 -0.144338  0.255156    192.000000
 -0.250000 -0.048113  0.255156    192.000000
 -0.083333  0.048113  0.255156     96.000000
  0.250000  0.433013  0.255156     96.000000
  0.416667  0.529238  0.255156    192.000000
 -0.416667  0.048113  0.255156    192.000000
 -0.250000  0.144338  0.255156     96.000000
  0.416667  0.721688  0.255156     96.000000
 -0.416667  0.240563  0.255156     96.000000
 


--------------------------------------------------------------------------------------------------------




 Dimension of arrays:
   k-points           NKPTS =     36   k-points in BZ     NKDIM =     36   number of bands    NBANDS=      8
   number of dos      NEDOS =    301   number of ions     NIONS =      2
   non local maximal  LDIM  =      4   non local SUM 2l+1 LMDIM =      8
   total plane-waves  NPLWV =  12800
   max r-space proj   IRMAX =      1   max aug-charges    IRDMAX=  13983
   dimension x,y,z NGX =    20 NGY =   20 NGZ =   32
   dimension x,y,z NGXF=    40 NGYF=   40 NGZF=   64
   support grid    NGXF=    40 NGYF=   40 NGZF=   64
   ions per type =               2
 NGX,Y,Z   is equivalent  to a cutoff of  11.87, 11.87, 11.63 a.u.
 NGXF,Y,Z  is equivalent  to a cutoff of  23.75, 23.75, 23.27 a.u.


 I would recommend the setting:
   dimension x,y,z NGX =    19 NGY =   19 NGZ =   32
 SYSTEM =  Si beta-tin                             
 POSCAR =  Si HCP                                  

 Startparameter for this run:
   NWRITE =      2    write-flag & timer
   PREC   = accura    normal or accurate (medium, high low for compatibility)
   ISTART =      0    job   : 0-new  1-cont  2-samecut
   ICHARG =      2    charge: 1-file 2-atom 10-const
   ISPIN  =      1    spin polarized calculation?
   LNONCOLLINEAR =      F non collinear calculations
   LSORBIT =      F    spin-orbit coupling
   INIWAV =      1    electr: 0-lowe 1-rand  2-diag
   LASPH  =      F    aspherical Exc in radial PAW
   METAGGA=      F    non-selfconsistent MetaGGA calc.

 Electronic Relaxation 1
   ENCUT  =  450.0 eV  33.07 Ry    5.75 a.u.   4.84  4.84  7.91*2*pi/ulx,y,z
   ENINI  =  450.0     initial cutoff
   ENAUG  =  322.1 eV  augmentation charge cutoff
   NELM   =     60;   NELMIN=  2; NELMDL= -5     # of ELM steps 
   EDIFF  = 0.1E-04   stopping-criterion for ELM
   LREAL  =      F    real-space projection
   NLSPLINE    = F    spline interpolate recip. space projectors
   LCOMPAT=      F    compatible to vasp.4.4
   GGA_COMPAT  = T    GGA compatible to vasp.4.4-vasp.4.6
   LMAXPAW     = -100 max onsite density
   LMAXMIX     =    2 max onsite mixed and CHGCAR
   VOSKOWN=      0    Vosko Wilk Nusair interpolation
   ROPT   =    0.00000
 Ionic relaxation
   EDIFFG = -.1E-01   stopping-criterion for IOM
   NSW    =    100    number of steps for IOM
   NBLOCK =      1;   KBLOCK =    100    inner block; outer block 
   IBRION =      2    ionic relax: 0-MD 1-quasi-New 2-CG
   NFREE  =      1    steps in history (QN), initial steepest desc. (CG)
   ISIF   =      4    stress and relaxation
   IWAVPR =     11    prediction:  0-non 1-charg 2-wave 3-comb
   ISYM   =      2    0-nonsym 1-usesym 2-fastsym
   LCORR  =      T    Harris-Foulkes like correction to forces

   POTIM  = 0.5000    time-step for ionic-motion
   TEIN   =    0.0    initial temperature
   TEBEG  =    0.0;   TEEND  =   0.0 temperature during run
   SMASS  =  -3.00    Nose mass-parameter (am)
   estimated Nose-frequenzy (Omega)   =  0.10E-29 period in steps =****** mass=  -0.179E-27a.u.
   SCALEE = 1.0000    scale energy and forces
   NPACO  =    256;   APACO  = 16.0  distance and # of slots for P.C.
   PSTRESS=    0.0 pullay stress

  Mass of Ions in am
   POMASS =  28.09
  Ionic Valenz
   ZVAL   =   4.00
  Atomic Wigner-Seitz radii
   RWIGS  =  -1.00
  virtual crystal weights 
   VCA    =   1.00
   NELECT =       8.0000    total number of electrons
   NUPDOWN=      -1.0000    fix difference up-down

 DOS related values:
   EMIN   =  10.00;   EMAX   =-10.00  energy-range for DOS
   EFERMI =   0.00
   ISMEAR =     0;   SIGMA  =   0.10  broadening in eV -4-tet -1-fermi 0-gaus

 Electronic relaxation 2 (details)
   IALGO  =     38    algorithm
   LDIAG  =      T    sub-space diagonalisation (order eigenvalues)
   LSUBROT=      F    optimize rotation matrix (better conditioning)
   TURBO    =      0    0=normal 1=particle mesh
   IRESTART =      0    0=no restart 2=restart with 2 vectors
   NREBOOT  =      0    no. of reboots
   NMIN     =      0    reboot dimension
   EREF     =   0.00    reference energy to select bands
   IMIX   =      4    mixing-type and parameters
     AMIX     =   0.40;   BMIX     =  1.00
     AMIX_MAG =   1.60;   BMIX_MAG =  1.00
     AMIN     =   0.10
     WC   =   100.;   INIMIX=   1;  MIXPRE=   1;  MAXMIX= -45

 Intra band minimization:
   WEIMIN = 0.0010     energy-eigenvalue tresh-hold
   EBREAK =  0.31E-06  absolut break condition
   DEPER  =   0.30     relativ break condition  

   TIME   =   0.40     timestep for ELM

  volume/ion in A,a.u.               =      15.52       104.75
  Fermi-wavevector in a.u.,A,eV,Ry     =   1.041779  1.968676 14.766438  1.085303
  Thomas-Fermi vector in A             =   2.176414
 
 Write flags
   LWAVE  =      T    write WAVECAR
   LCHARG =      T    write CHGCAR
   LVTOT  =      F    write LOCPOT, total local potential
   LVHAR  =      F    write LOCPOT, Hartree potential only
   LELF   =      F    write electronic localiz. function (ELF)
   LORBIT =      0    0 simple, 1 ext, 2 COOP (PROOUT)


 Dipole corrections
   LMONO  =      F    monopole corrections only (constant potential shift)
   LDIPOL =      F    correct potential (dipole corrections)
   IDIPOL =      0    1-x, 2-y, 3-z, 4-all directions 
   EPSILON=  1.0000000 bulk dielectric constant

 Exchange correlation treatment:
   GGA     =    --    GGA type
   LEXCH   =     8    internal setting for exchange type
   VOSKOWN=      0    Vosko Wilk Nusair interpolation
   LHFCALC =     F    Hartree Fock is set to
   LHFONE  =     F    Hartree Fock one center treatment
   AEXX    =    0.0000 exact exchange contribution

 Linear response parameters
   LEPSILON=     F    determine dielectric tensor
   LRPA    =     F    only Hartree local field effects (RPA)
   LNABLA  =     F    use nabla operator in PAW spheres
   LVEL    =     F    velocity operator in full k-point grid
   LINTERFAST=   F  fast interpolation
   KINTER  =     0    interpolate to denser k-point grid
   CSHIFT  =0.1000    complex shift for real part using Kramers Kronig
   OMEGAMAX=  -1.0    maximum frequency
   DEG_THRESHOLD= 0.2000000E-02 threshold for treating states as degnerate
   RTIME   =    0.100 relaxation time in fs

 Orbital magnetization related:
   ORBITALMAG=     F  switch on orbital magnetization
   LCHIMAG   =     F  perturbation theory with respect to B field
   DQ        =  0.001000  dq finite difference perturbation B field



--------------------------------------------------------------------------------------------------------


 conjugate gradient relaxation of ions
 charge density and potential will be updated during run
 non-spin polarized calculation
 Variant of blocked Davidson
 Davidson routine will perform the subspace rotation
 perform sub-space diagonalisation
    after iterative eigenvector-optimisation
 modified Broyden-mixing scheme, WC =      100.0
 initial mixing is a Kerker type mixing with AMIX =  0.4000 and BMIX =      1.0000
 Hartree-type preconditioning will be used
 using additional bands            4
 reciprocal scheme for non local part
 use partial core corrections
 calculate Harris-corrections to forces 
   (improved forces if not selfconsistent)
 use gradient corrections 
 use of overlap-Matrix (Vanderbilt PP)
 Gauss-broadening in eV      SIGMA  =   0.10


--------------------------------------------------------------------------------------------------------


  energy-cutoff  :      450.00
  volume of cell :       31.04
      direct lattice vectors                 reciprocal lattice vectors
     2.800000000  0.000000000  0.000000000     0.357142857  0.206196525  0.000000000
    -1.400000000  2.424871131  0.000000000     0.000000000  0.412393049  0.000000000
     0.000000000  0.000000000  4.572372000     0.000000000  0.000000000  0.218704865

  length of vectors
     2.800000000  2.800000000  4.572372000     0.412393049  0.412393049  0.218704865


 
 k-points in units of 2pi/SCALE and weight: K-Points                                
   0.08333333  0.14433757  0.05103114       0.019
   0.25000000  0.24056261  0.05103114       0.037
   0.41666667  0.33678766  0.05103114       0.037
  -0.41666667 -0.14433757  0.05103114       0.037
  -0.25000000 -0.04811252  0.05103114       0.037
  -0.08333333  0.04811252  0.05103114       0.019
   0.25000000  0.43301270  0.05103114       0.019
   0.41666667  0.52923775  0.05103114       0.037
  -0.41666667  0.04811252  0.05103114       0.037
  -0.25000000  0.14433757  0.05103114       0.019
   0.41666667  0.72168784  0.05103114       0.019
  -0.41666667  0.24056261  0.05103114       0.019
   0.08333333  0.14433757  0.15309341       0.019
   0.25000000  0.24056261  0.15309341       0.037
   0.41666667  0.33678766  0.15309341       0.037
  -0.41666667 -0.14433757  0.15309341       0.037
  -0.25000000 -0.04811252  0.15309341       0.037
  -0.08333333  0.04811252  0.15309341       0.019
   0.25000000  0.43301270  0.15309341       0.019
   0.41666667  0.52923775  0.15309341       0.037
  -0.41666667  0.04811252  0.15309341       0.037
  -0.25000000  0.14433757  0.15309341       0.019
   0.41666667  0.72168784  0.15309341       0.019
  -0.41666667  0.24056261  0.15309341       0.019
   0.08333333  0.14433757  0.25515568       0.019
   0.25000000  0.24056261  0.25515568       0.037
   0.41666667  0.33678766  0.25515568       0.037
  -0.41666667 -0.14433757  0.25515568       0.037
  -0.25000000 -0.04811252  0.25515568       0.037
  -0.08333333  0.04811252  0.25515568       0.019
   0.25000000  0.43301270  0.25515568       0.019
   0.41666667  0.52923775  0.25515568       0.037
  -0.41666667  0.04811252  0.25515568       0.037
  -0.25000000  0.14433757  0.25515568       0.019
   0.41666667  0.72168784  0.25515568       0.019
  -0.41666667  0.24056261  0.25515568       0.019
 
 k-points in reciprocal lattice and weights: K-Points                                
   0.08333333  0.08333333  0.08333333       0.019
   0.25000000  0.08333333  0.08333333       0.037
   0.41666667  0.08333333  0.08333333       0.037
  -0.41666667  0.08333333  0.08333333       0.037
  -0.25000000  0.08333333  0.08333333       0.037
  -0.08333333  0.08333333  0.08333333       0.019
   0.25000000  0.25000000  0.08333333       0.019
   0.41666667  0.25000000  0.08333333       0.037
  -0.41666667  0.25000000  0.08333333       0.037
  -0.25000000  0.25000000  0.08333333       0.019
   0.41666667  0.41666667  0.08333333       0.019
  -0.41666667  0.41666667  0.08333333       0.019
   0.08333333  0.08333333  0.25000000       0.019
   0.25000000  0.08333333  0.25000000       0.037
   0.41666667  0.08333333  0.25000000       0.037
  -0.41666667  0.08333333  0.25000000       0.037
  -0.25000000  0.08333333  0.25000000       0.037
  -0.08333333  0.08333333  0.25000000       0.019
   0.25000000  0.25000000  0.25000000       0.019
   0.41666667  0.25000000  0.25000000       0.037
  -0.41666667  0.25000000  0.25000000       0.037
  -0.25000000  0.25000000  0.25000000       0.019
   0.41666667  0.41666667  0.25000000       0.019
  -0.41666667  0.41666667  0.25000000       0.019
   0.08333333  0.08333333  0.41666667       0.019
   0.25000000  0.08333333  0.41666667       0.037
   0.41666667  0.08333333  0.41666667       0.037
  -0.41666667  0.08333333  0.41666667       0.037
  -0.25000000  0.08333333  0.41666667       0.037
  -0.08333333  0.08333333  0.41666667       0.019
   0.25000000  0.25000000  0.41666667       0.019
   0.41666667  0.25000000  0.41666667       0.037
  -0.41666667  0.25000000  0.41666667       0.037
  -0.25000000  0.25000000  0.41666667       0.019
   0.41666667  0.41666667  0.41666667       0.019
  -0.41666667  0.41666667  0.41666667       0.019
 
 position of ions in fractional coordinates (direct lattice) 
   0.00000000  0.00000000  0.00000000
   0.33333333  0.66666667  0.50000000
 
 position of ions in cartesian coordinates  (Angst):
   0.00000000  0.00000000  0.00000000
  -0.00000000  1.61658075  2.28618600
 


--------------------------------------------------------------------------------------------------------


 k-point  1 :   0.0833 0.0833 0.0833  plane waves:     669
 k-point  2 :   0.2500 0.0833 0.0833  plane waves:     664
 k-point  3 :   0.4167 0.0833 0.0833  plane waves:     678
 k-point  4 :  -0.4167 0.0833 0.0833  plane waves:     673
 k-point  5 :  -0.2500 0.0833 0.0833  plane waves:     667
 k-point  6 :  -0.0833 0.0833 0.0833  plane waves:     674
 k-point  7 :   0.2500 0.2500 0.0833  plane waves:     670
 k-point  8 :   0.4167 0.2500 0.0833  plane waves:     679
 k-point  9 :  -0.4167 0.2500 0.0833  plane waves:     666
 k-point 10 :  -0.2500 0.2500 0.0833  plane waves:     670
 k-point 11 :   0.4167 0.4167 0.0833  plane waves:     680
 k-point 12 :  -0.4167 0.4167 0.0833  plane waves:     676
 k-point 13 :   0.0833 0.0833 0.2500  plane waves:     669
 k-point 14 :   0.2500 0.0833 0.2500  plane waves:     671
 k-point 15 :   0.4167 0.0833 0.2500  plane waves:     674
 k-point 16 :  -0.4167 0.0833 0.2500  plane waves:     671
 k-point 17 :  -0.2500 0.0833 0.2500  plane waves:     669
 k-point 18 :  -0.0833 0.0833 0.2500  plane waves:     668
 k-point 19 :   0.2500 0.2500 0.2500  plane waves:     676
 k-point 20 :   0.4167 0.2500 0.2500  plane waves:     680
 k-point 21 :  -0.4167 0.2500 0.2500  plane waves:     675
 k-point 22 :  -0.2500 0.2500 0.2500  plane waves:     671
 k-point 23 :   0.4167 0.4167 0.2500  plane waves:     681
 k-point 24 :  -0.4167 0.4167 0.2500  plane waves:     674
 k-point 25 :   0.0833 0.0833 0.4167  plane waves:     666
 k-point 26 :   0.2500 0.0833 0.4167  plane waves:     678
 k-point 27 :   0.4167 0.0833 0.4167  plane waves:     675
 k-point 28 :  -0.4167 0.0833 0.4167  plane waves:     676
 k-point 29 :  -0.2500 0.0833 0.4167  plane waves:     668
 k-point 30 :  -0.0833 0.0833 0.4167  plane waves:     672
 k-point 31 :   0.2500 0.2500 0.4167  plane waves:     680
 k-point 32 :   0.4167 0.2500 0.4167  plane waves:     678
 k-point 33 :  -0.4167 0.2500 0.4167  plane waves:     672
 k-point 34 :  -0.2500 0.2500 0.4167  plane waves:     670
 k-point 35 :   0.4167 0.4167 0.4167  plane waves:     679
 k-point 36 :  -0.4167 0.4167 0.4167  plane waves:     670

 maximum and minimum number of plane-waves per node :       681      664

 maximum number of plane-waves:       681
 maximum index in each direction: 
   IXMAX=    5   IYMAX=    4   IZMAX=    7
   IXMIN=   -5   IYMIN=   -5   IZMIN=   -8

 WARNING: aliasing errors must be expected set NGX to  22 to avoid them
 NGY is ok and might be reduce to  20
 NGZ is ok and might be reduce to  32
 aliasing errors are usually negligible using standard VASP settings
 and one can safely disregard these warnings

 serial   3D FFT for wavefunctions
 parallel 3D FFT for charge:
    minimum data exchange during FFTs selected (reduces bandwidth)


 total amount of memory used by VASP on root node    35114. kBytes
========================================================================

   base      :      30000. kBytes
   nonl-proj :       1597. kBytes
   fftplans  :        933. kBytes
   grid      :       1772. kBytes
   one-center:          6. kBytes
   wavefun   :        806. kBytes
 
     INWAV:  cpu time    0.0000: real time    0.0000
 Broyden mixing: mesh for mixing (old mesh)
   NGX =  9   NGY =  9   NGZ = 15
  (NGX  = 40   NGY  = 40   NGZ  = 64)
  gives a total of   1215 points

 initial charge density was supplied:
 charge density of overlapping atoms calculated
 number of electron       8.0000000 magnetization 
 keeping initial charge density in first step


--------------------------------------------------------------------------------------------------------


 Maximum index for augmentation-charges         3347 (set IRDMAX)


--------------------------------------------------------------------------------------------------------


 First call to EWALD:  gamma=   0.564
 Maximum number of real-space cells 3x 3x 2
 Maximum number of reciprocal cells 3x 3x 4

 FEWALD executed in parallel
    FEWALD:  cpu time    0.0020: real time    0.0010


----------------------------------------- Iteration    1(   1)  ---------------------------------------


    POTLOK:  cpu time    0.0490: real time    0.0301
    SETDIJ:  cpu time    0.0120: real time    0.0058
     EDDAV:  cpu time    1.3618: real time    0.8573
       DOS:  cpu time    0.0020: real time    0.0010
    --------------------------------------------
      LOOP:  cpu time    1.4268: real time    0.8965

 eigenvalue-minimisations  :   576
 total energy-change (2. order) : 0.2940939E+01  (-0.3091538E+03)
 number of electron       8.0000000 magnetization 
 augmentation part        8.0000000 magnetization 

 Free energy of the ion-electron system (eV)
  ---------------------------------------------------
  alpha Z        PSCENC =         4.33736774
  Ewald energy   TEWEN  =      -266.75488720
  -Hartree energ DENC   =        -1.53857074
  -exchange      EXHF   =         0.00000000
  -V(xc)+E(xc)   XCENC  =       -17.97658732
  PAW double counting   =       176.24759923     -141.06103558
  entropy T*S    EENTRO =        -0.00296533
  eigenvalues    EBANDS =        43.55809041
  atomic energy  EATOM  =       206.13192747
  Solvation  Ediel_sol  =         0.00000000
  ---------------------------------------------------
  free energy    TOTEN  =         2.94093868 eV

  energy without entropy =        2.94390401  energy(sigma->0) =        2.94242134


--------------------------------------------------------------------------------------------------------




----------------------------------------- Iteration    1(   2)  ---------------------------------------


     EDDAV:  cpu time    2.1817: real time    1.3755
       DOS:  cpu time    0.0030: real time    0.0012
    --------------------------------------------
      LOOP:  cpu time    2.1877: real time    1.3793

 eigenvalue-minimisations  :   848
 total energy-change (2. order) :-0.1258541E+02  (-0.1216811E+02)
 number of electron       8.0000000 magnetization 
 augmentation part        8.0000000 magnetization 

 Free energy of the ion-electron system (eV)
  ---------------------------------------------------
  alpha Z        PSCENC =         4.33736774
  Ewald energy   TEWEN  =      -266.75488720
  -Hartree energ DENC   =        -1.53857074
  -exchange      EXHF   =         0.00000000
  -V(xc)+E(xc)   XCENC  =       -17.97658732
  PAW double counting   =       176.24759923     -141.06103558
  entropy T*S    EENTRO =        -0.00495806
  eigenvalues    EBANDS =        30.97467403
  atomic energy  EATOM  =       206.13192747
  Solvation  Ediel_sol  =         0.00000000
  ---------------------------------------------------
  free energy    TOTEN  =        -9.64447042 eV

  energy without entropy =       -9.63951236  energy(sigma->0) =       -9.64199139


--------------------------------------------------------------------------------------------------------




----------------------------------------- Iteration    1(   3)  ---------------------------------------


     EDDAV:  cpu time    1.9067: real time    1.1965
       DOS:  cpu time    0.0020: real time    0.0011
    --------------------------------------------
      LOOP:  cpu time    1.9127: real time    1.2001

 eigenvalue-minimisations  :   808
 total energy-change (2. order) :-0.1934697E+00  (-0.1920309E+00)
 number of electron       8.0000000 magnetization 
 augmentation part        8.0000000 magnetization 

 Free energy of the ion-electron system (eV)
  ---------------------------------------------------
  alpha Z        PSCENC =         4.33736774
  Ewald energy   TEWEN  =      -266.75488720
  -Hartree energ DENC   =        -1.53857074
  -exchange      EXHF   =         0.00000000
  -V(xc)+E(xc)   XCENC  =       -17.97658732
  PAW double counting   =       176.24759923     -141.06103558
  entropy T*S    EENTRO =        -0.00304857
  eigenvalues    EBANDS =        30.77929484
  atomic energy  EATOM  =       206.13192747
  Solvation  Ediel_sol  =         0.00000000
  ---------------------------------------------------
  free energy    TOTEN  =        -9.83794012 eV

  energy without entropy =       -9.83489155  energy(sigma->0) =       -9.83641584


--------------------------------------------------------------------------------------------------------




----------------------------------------- Iteration    1(   4)  ---------------------------------------


     EDDAV:  cpu time    2.1597: real time    1.3791
       DOS:  cpu time    0.0010: real time    0.0009
    --------------------------------------------
      LOOP:  cpu time    2.1637: real time    1.3828

 eigenvalue-minimisations  :   832
 total energy-change (2. order) :-0.5828358E-03  (-0.5828034E-03)
 number of electron       8.0000000 magnetization 
 augmentation part        8.0000000 magnetization 

 Free energy of the ion-electron system (eV)
  ---------------------------------------------------
  alpha Z        PSCENC =         4.33736774
  Ewald energy   TEWEN  =      -266.75488720
  -Hartree energ DENC   =        -1.53857074
  -exchange      EXHF   =         0.00000000
  -V(xc)+E(xc)   XCENC  =       -17.97658732
  PAW double counting   =       176.24759923     -141.06103558
  entropy T*S    EENTRO =        -0.00305166
  eigenvalues    EBANDS =        30.77871510
  atomic energy  EATOM  =       206.13192747
  Solvation  Ediel_sol  =         0.00000000
  ---------------------------------------------------
  free energy    TOTEN  =        -9.83852295 eV

  energy without entropy =       -9.83547129  energy(sigma->0) =       -9.83699712


--------------------------------------------------------------------------------------------------------




----------------------------------------- Iteration    1(   5)  ---------------------------------------


     EDDAV:  cpu time    1.6627: real time    1.0431
       DOS:  cpu time    0.0020: real time    0.0010
    CHARGE:  cpu time    0.0340: real time    0.0229
    MIXING:  cpu time    0.0060: real time    0.0055
    --------------------------------------------
      LOOP:  cpu time    1.7077: real time    1.0751

 eigenvalue-minimisations  :   768
 total energy-change (2. order) :-0.7849562E-06  (-0.7851860E-06)
 number of electron       8.0000000 magnetization 
 augmentation part       -0.4846274 magnetization 

 Broyden mixing:
  rms(total) = 0.32638E+00    rms(broyden)= 0.32638E+00
  rms(prec ) = 0.38369E+00
  weight for this iteration     100.00

 Free energy of the ion-electron system (eV)
  ---------------------------------------------------
  alpha Z        PSCENC =         4.33736774
  Ewald energy   TEWEN  =      -266.75488720
  -Hartree energ DENC   =        -1.53857074
  -exchange      EXHF   =         0.00000000
  -V(xc)+E(xc)   XCENC  =       -17.97658732
  PAW double counting   =       176.24759923     -141.06103558
  entropy T*S    EENTRO =        -0.00305166
  eigenvalues    EBANDS =        30.77871432
  atomic energy  EATOM  =       206.13192747
  Solvation  Ediel_sol  =         0.00000000
  ---------------------------------------------------
  free energy    TOTEN  =        -9.83852374 eV

  energy without entropy =       -9.83547208  energy(sigma->0) =       -9.83699791


--------------------------------------------------------------------------------------------------------




----------------------------------------- Iteration    1(   6)  ---------------------------------------


    POTLOK:  cpu time    0.0450: real time    0.0291
    SETDIJ:  cpu time    0.0090: real time    0.0077
     EDDAV:  cpu time    1.9817: real time    1.2504
       DOS:  cpu time    0.0020: real time    0.0011
    CHARGE:  cpu time    0.0240: real time    0.0121
    MIXING:  cpu time    0.0010: real time    0.0009
    --------------------------------------------
      LOOP:  cpu time    2.0677: real time    1.3040

 eigenvalue-minimisations  :   656
 total energy-change (2. order) : 0.2360877E-01  (-0.8861726E-03)
 number of electron       8.0000000 magnetization 
 augmentation part       -0.4891270 magnetization 

 Broyden mixing:
  rms(total) = 0.17899E+00    rms(broyden)= 0.17899E+00
  rms(prec ) = 0.21537E+00
  weight for this iteration     100.00

 eigenvalues of (default mixing * dielectric matrix)
  average eigenvalue GAMMA=   2.2011
  2.2011

 Free energy of the ion-electron system (eV)
  ---------------------------------------------------
  alpha Z        PSCENC =         4.33736774
  Ewald energy   TEWEN  =      -266.75488720
  -Hartree energ DENC   =        -1.34357888
  -exchange      EXHF   =         0.00000000
  -V(xc)+E(xc)   XCENC  =       -17.95371239
  PAW double counting   =       306.96809299     -271.76968447
  entropy T*S    EENTRO =        -0.00318341
  eigenvalues    EBANDS =        30.57274318
  atomic energy  EATOM  =       206.13192747
  Solvation  Ediel_sol  =         0.00000000
  ---------------------------------------------------
  free energy    TOTEN  =        -9.81491497 eV

  energy without entropy =       -9.81173156  energy(sigma->0) =       -9.81332327


--------------------------------------------------------------------------------------------------------




----------------------------------------- Iteration    1(   7)  ---------------------------------------


    POTLOK:  cpu time    0.0450: real time    0.0272
    SETDIJ:  cpu time    0.0110: real time    0.0055
     EDDAV:  cpu time    1.6388: real time    1.0103
       DOS:  cpu time    0.0010: real time    0.0006
    CHARGE:  cpu time    0.0230: real time    0.0126
    MIXING:  cpu time    0.0080: real time    0.0071
    --------------------------------------------
      LOOP:  cpu time    1.7297: real time    1.0661

 eigenvalue-minimisations  :   760
 total energy-change (2. order) : 0.1298685E-01  (-0.1632183E-02)
 number of electron       8.0000000 magnetization 
 augmentation part       -0.4953842 magnetization 

 Broyden mixing:
  rms(total) = 0.14216E-01    rms(broyden)= 0.14216E-01
  rms(prec ) = 0.17585E-01
  weight for this iteration     100.00

 eigenvalues of (default mixing * dielectric matrix)
  average eigenvalue GAMMA=   2.4459
  2.4459  2.4459

 Free energy of the ion-electron system (eV)
  ---------------------------------------------------
  alpha Z        PSCENC =         4.33736774
  Ewald energy   TEWEN  =      -266.75488720
  -Hartree energ DENC   =        -1.12868488
  -exchange      EXHF   =         0.00000000
  -V(xc)+E(xc)   XCENC  =       -17.91447516
  PAW double counting   =       531.76177718     -496.55566008
  entropy T*S    EENTRO =        -0.00336871
  eigenvalues    EBANDS =        30.32407553
  atomic energy  EATOM  =       206.13192747
  Solvation  Ediel_sol  =         0.00000000
  ---------------------------------------------------
  free energy    TOTEN  =        -9.80192812 eV

  energy without entropy =       -9.79855941  energy(sigma->0) =       -9.80024377


--------------------------------------------------------------------------------------------------------




----------------------------------------- Iteration    1(   8)  ---------------------------------------


    POTLOK:  cpu time    0.0640: real time    0.0380
    SETDIJ:  cpu time    0.0040: real time    0.0017
     EDDAV:  cpu time    2.2187: real time    1.4068
       DOS:  cpu time    0.0020: real time    0.0010
    CHARGE:  cpu time    0.0220: real time    0.0126
    MIXING:  cpu time    0.0020: real time    0.0011
    --------------------------------------------
      LOOP:  cpu time    2.3176: real time    1.4639

 eigenvalue-minimisations  :   840
 total energy-change (2. order) : 0.8538533E-04  (-0.1228439E-04)
 number of electron       8.0000000 magnetization 
 augmentation part       -0.4957831 magnetization 

 Broyden mixing:
  rms(total) = 0.15827E-02    rms(broyden)= 0.15826E-02
  rms(prec ) = 0.20563E-02
  weight for this iteration     100.00

 eigenvalues of (default mixing * dielectric matrix)
  average eigenvalue GAMMA=   2.0116
  0.9313  2.7334  2.3702

 Free energy of the ion-electron system (eV)
  ---------------------------------------------------
  alpha Z        PSCENC =         4.33736774
  Ewald energy   TEWEN  =      -266.75488720
  -Hartree energ DENC   =        -1.12206163
  -exchange      EXHF   =         0.00000000
  -V(xc)+E(xc)   XCENC  =       -17.90726727
  PAW double counting   =       513.26198062     -478.06860942
  entropy T*S    EENTRO =        -0.00337360
  eigenvalues    EBANDS =        30.32308057
  atomic energy  EATOM  =       206.13192747
  Solvation  Ediel_sol  =         0.00000000
  ---------------------------------------------------
  free energy    TOTEN  =        -9.80184274 eV

  energy without entropy =       -9.79846913  energy(sigma->0) =       -9.80015594


--------------------------------------------------------------------------------------------------------




----------------------------------------- Iteration    1(   9)  ---------------------------------------


    POTLOK:  cpu time    0.0490: real time    0.0297
    SETDIJ:  cpu time    0.0040: real time    0.0017
     EDDAV:  cpu time    1.1198: real time    0.6970
       DOS:  cpu time    0.0020: real time    0.0008
    --------------------------------------------
      LOOP:  cpu time    1.1838: real time    0.7361

 eigenvalue-minimisations  :   480
 total energy-change (2. order) :-0.7557696E-06  (-0.1810565E-06)
 number of electron       8.0000000 magnetization 
 augmentation part       -0.4957831 magnetization 

 Free energy of the ion-electron system (eV)
  ---------------------------------------------------
  alpha Z        PSCENC =         4.33736774
  Ewald energy   TEWEN  =      -266.75488720
  -Hartree energ DENC   =        -1.12091626
  -exchange      EXHF   =         0.00000000
  -V(xc)+E(xc)   XCENC  =       -17.90641173
  PAW double counting   =       511.32940159     -476.13710434
  entropy T*S    EENTRO =        -0.00337490
  eigenvalues    EBANDS =        30.32215415
  atomic energy  EATOM  =       206.13192747
  Solvation  Ediel_sol  =         0.00000000
  ---------------------------------------------------
  free energy    TOTEN  =        -9.80184349 eV

  energy without entropy =       -9.79846859  energy(sigma->0) =       -9.80015604


--------------------------------------------------------------------------------------------------------




 average (electrostatic) potential at core
  the test charge radii are     0.9892
  (the norm of the test charge is              1.0000)
       1 -80.8563       2 -80.8563
 
 
 
 E-fermi :   9.1983     XC(G=0): -10.9143     alpha+bet :-15.4516


 k-point     1 :       0.0833    0.0833    0.0833
  band No.  band energies     occupation 
      1      -3.9946      2.00000
      2       1.6343      2.00000
      3       4.0427      2.00000
      4      13.2058      0.00000
      5      13.8545      0.00000
      6      17.8076      0.00000
      7      18.2928      0.00000
      8      18.3143      0.00000

 k-point     2 :       0.2500    0.0833    0.0833
  band No.  band energies     occupation 
      1      -2.2962      2.00000
      2       3.2954      2.00000
      3       5.6534      2.00000
      4       7.6535      2.00000
      5      11.4563      0.00000
      6      12.9200      0.00000
      7      15.0082      0.00000
      8      16.4784      0.00000

 k-point     3 :       0.4167    0.0833    0.0833
  band No.  band energies     occupation 
      1       0.6743      2.00000
      2       2.8300      2.00000
      3       6.2040      2.00000
      4       7.9626      2.00000
      5       8.7405      2.00000
      6      10.5145      0.00000
      7      10.7068      0.00000
      8      15.5722      0.00000

 k-point     4 :      -0.4167    0.0833    0.0833
  band No.  band energies     occupation 
      1      -0.9531      2.00000
      2       4.5973      2.00000
      3       5.0894      2.00000
      4       6.9097      2.00000
      5      10.4671      0.00000
      6      10.8470      0.00000
      7      12.7372      0.00000
      8      15.8713      0.00000

 k-point     5 :      -0.2500    0.0833    0.0833
  band No.  band energies     occupation 
      1      -3.3131      2.00000
      2       2.3015      2.00000
      3       4.6906      2.00000
      4      10.4629      0.00000
      5      12.4075      0.00000
      6      15.5173      0.00000
      7      16.9803      0.00000
      8      17.4743      0.00000

 k-point     6 :      -0.0833    0.0833    0.0833
  band No.  band energies     occupation 
      1      -4.3364      2.00000
      2       1.2994      2.00000
      3       3.7174      2.00000
      4      14.8810      0.00000
      5      15.9120      0.00000
      6      17.7982      0.00000
      7      18.7775      0.00000
      8      19.2064      0.00000

 k-point     7 :       0.2500    0.2500    0.0833
  band No.  band energies     occupation 
      1       0.0476      2.00000
      2       5.5286      2.00000
      3       5.7154      2.00000
      4       6.5170      2.00000
      5       7.8410      2.00000
      6      11.0574      0.00000
      7      11.6537      0.00000
      8      13.1123      0.00000

 k-point     8 :       0.4167    0.2500    0.0833
  band No.  band energies     occupation 
      1       1.6654      2.00000
      2       3.7394      2.00000
      3       5.8757      2.00000
      4       7.1656      2.00000
      5       8.9133      1.99994
      6       9.5615      0.00000
      7      10.8137      0.00000
      8      11.8228      0.00000

 k-point     9 :      -0.4167    0.2500    0.0833
  band No.  band energies     occupation 
      1      -1.2860      2.00000
      2       4.2803      2.00000
      3       6.5771      2.00000
      4       6.6782      2.00000
      5       8.7343      2.00000
      6      11.9675      0.00000
      7      13.5792      0.00000
      8      14.4319      0.00000

 k-point    10 :      -0.2500    0.2500    0.0833
  band No.  band energies     occupation 
      1      -2.9734      2.00000
      2       2.6337      2.00000
      3       5.0128      2.00000
      4       8.9342      1.99981
      5      13.6370      0.00000
      6      14.0890      0.00000
      7      15.8498      0.00000
      8      16.4530      0.00000

 k-point    11 :       0.4167    0.4167    0.0833
  band No.  band energies     occupation 
      1       1.6843      2.00000
      2       2.4748      2.00000
      3       7.2439      2.00000
      4       7.7444      2.00000
      5       8.0575      2.00000
      6       9.4101      0.00274
      7      10.3751      0.00000
      8      13.3951      0.00000

 k-point    12 :      -0.4167    0.4167    0.0833
  band No.  band energies     occupation 
      1      -0.2924      2.00000
      2       3.7828      2.00000
      3       5.2570      2.00000
      4       7.4857      2.00000
      5       9.2754      0.27600
      6      11.5737      0.00000
      7      12.4460      0.00000
      8      14.7737      0.00000

 k-point    13 :       0.0833    0.0833    0.2500
  band No.  band energies     occupation 
      1      -3.6103      2.00000
      2      -0.1930      2.00000
      3       6.5561      2.00000
      4      13.5466      0.00000
      5      14.1088      0.00000
      6      15.9200      0.00000
      7      16.5620      0.00000
      8      17.1892      0.00000

 k-point    14 :       0.2500    0.0833    0.2500
  band No.  band energies     occupation 
      1      -1.9147      2.00000
      2       1.4777      2.00000
      3       7.9928      2.00000
      4       8.1349      2.00000
      5      11.2718      0.00000
      6      11.8101      0.00000
      7      14.8562      0.00000
      8      16.4412      0.00000

 k-point    15 :       0.4167    0.0833    0.2500
  band No.  band energies     occupation 
      1       1.0512      2.00000
      2       3.1971      2.00000
      3       4.4083      2.00000
      4       6.4712      2.00000
      5      10.8198      0.00000
      6      11.0037      0.00000
      7      12.8206      0.00000
      8      14.2898      0.00000

 k-point    16 :      -0.4167    0.0833    0.2500
  band No.  band energies     occupation 
      1      -0.5738      2.00000
      2       2.7972      2.00000
      3       5.4474      2.00000
      4       8.5255      2.00000
      5       9.6201      0.00000
      6      11.1793      0.00000
      7      14.0926      0.00000
      8      15.2133      0.00000

 k-point    17 :      -0.2500    0.0833    0.2500
  band No.  band energies     occupation 
      1      -2.9299      2.00000
      2       0.4776      2.00000
      3       7.1904      2.00000
      4      10.8101      0.00000
      5      12.7268      0.00000
      6      13.9556      0.00000
      7      15.7900      0.00000
      8      16.3948      0.00000

 k-point    18 :      -0.0833    0.0833    0.2500
  band No.  band energies     occupation 
      1      -3.9514      2.00000
      2      -0.5294      2.00000
      3       6.2361      2.00000
      4      15.1095      0.00000
      5      15.6527      0.00000
      6      16.2314      0.00000
      7      17.7829      0.00000
      8      18.7090      0.00000

 k-point    19 :       0.2500    0.2500    0.2500
  band No.  band energies     occupation 
      1       0.4252      2.00000
      2       3.7790      2.00000
      3       6.0328      2.00000
      4       6.8750      2.00000
      5       9.2913      0.18862
      6       9.6018      0.00000
      7      10.8971      0.00000
      8      15.2930      0.00000

 k-point    20 :       0.4167    0.2500    0.2500
  band No.  band energies     occupation 
      1       2.0404      2.00000
      2       4.1062      2.00000
      3       5.3766      2.00000
      4       6.2408      2.00000
      5       7.3790      2.00000
      6       9.3556      0.02614
      7      11.9769      0.00000
      8      13.8922      0.00000

 k-point    21 :      -0.4167    0.2500    0.2500
  band No.  band energies     occupation 
      1      -0.9062      2.00000
      2       2.4705      2.00000
      3       7.0105      2.00000
      4       8.9708      1.99871
      5       9.0901      1.87419
      6      10.3474      0.00000
      7      12.3376      0.00000
      8      16.1386      0.00000

 k-point    22 :      -0.2500    0.2500    0.2500
  band No.  band energies     occupation 
      1      -2.5908      2.00000
      2       0.8118      2.00000
      3       7.5023      2.00000
      4       9.2881      0.20412
      5      12.5029      0.00000
      6      13.9699      0.00000
      7      15.7556      0.00000
      8      16.8437      0.00000

 k-point    23 :       0.4167    0.4167    0.2500
  band No.  band energies     occupation 
      1       2.0612      2.00000
      2       2.8431      2.00000
      3       5.4188      2.00000
      4       6.1065      2.00000
      5       8.4119      2.00000
      6      11.2993      0.00000
      7      11.8579      0.00000
      8      13.1959      0.00000

 k-point    24 :      -0.4167    0.4167    0.2500
  band No.  band energies     occupation 
      1       0.0858      2.00000
      2       3.4414      2.00000
      3       4.1635      2.00000
      4       7.3864      2.00000
      5      10.1163      0.00000
      6      12.7817      0.00000
      7      13.7654      0.00000
      8      15.1238      0.00000

 k-point    25 :       0.0833    0.0833    0.4167
  band No.  band energies     occupation 
      1      -2.8440      2.00000
      2      -1.7014      2.00000
      3       9.4168      0.00200
      4      12.4924      0.00000
      5      14.2195      0.00000
      6      14.9521      0.00000
      7      15.3179      0.00000
      8      15.9772      0.00000

 k-point    26 :       0.2500    0.0833    0.4167
  band No.  band energies     occupation 
      1      -1.1541      2.00000
      2      -0.0197      2.00000
      3       8.7180      2.00000
      4       9.6927      0.00000
      5      11.0866      0.00000
      6      12.4157      0.00000
      7      13.6180      0.00000
      8      14.2405      0.00000

 k-point    27 :       0.4167    0.0833    0.4167
  band No.  band energies     occupation 
      1       1.8022      2.00000
      2       2.9186      2.00000
      3       3.9460      2.00000
      4       5.0386      2.00000
      5      11.5383      0.00000
      6      12.4596      0.00000
      7      13.7666      0.00000
      8      15.3106      0.00000

 k-point    28 :      -0.4167    0.0833    0.4167
  band No.  band energies     occupation 
      1       0.1823      2.00000
      2       1.3096      2.00000
      3       6.1744      2.00000
      4       7.2498      2.00000
      5      11.8208      0.00000
      6      12.0951      0.00000
      7      13.1274      0.00000
      8      15.1177      0.00000

 k-point    29 :      -0.2500    0.0833    0.4167
  band No.  band energies     occupation 
      1      -2.1659      2.00000
      2      -1.0265      2.00000
      3       9.9997      0.00000
      4      11.4640      0.00000
      5      12.6097      0.00000
      6      12.9051      0.00000
      7      13.8776      0.00000
      8      14.5637      0.00000

 k-point    30 :      -0.0833    0.0833    0.4167
  band No.  band energies     occupation 
      1      -3.1841      2.00000
      2      -2.0398      2.00000
      3       9.1115      1.78083
      4      12.2502      0.00000
      5      15.8929      0.00000
      6      16.8145      0.00000
      7      16.8579      0.00000
      8      17.7463      0.00000

 k-point    31 :       0.2500    0.2500    0.4167
  band No.  band energies     occupation 
      1       1.1777      2.00000
      2       2.2995      2.00000
      3       6.7629      2.00000
      4       7.5792      2.00000
      5       7.8589      2.00000
      6       8.6157      2.00000
      7      13.2638      0.00000
      8      15.8344      0.00000

 k-point    32 :       0.4167    0.2500    0.4167
  band No.  band energies     occupation 
      1       2.7874      2.00000
      2       3.8972      2.00000
      3       4.8538      2.00000
      4       5.9437      2.00000
      5       6.9602      2.00000
      6       8.0195      2.00000
      7      14.5575      0.00000
      8      15.9498      0.00000

 k-point    33 :      -0.4167    0.2500    0.4167
  band No.  band energies     occupation 
      1      -0.1490      2.00000
      2       0.9801      2.00000
      3       7.7306      2.00000
      4       8.7856      2.00000
      5       9.7787      0.00000
      6      10.6773      0.00000
      7      12.2363      0.00000
      8      14.9948      0.00000

 k-point    34 :      -0.2500    0.2500    0.4167
  band No.  band energies     occupation 
      1      -1.8279      2.00000
      2      -0.6902      2.00000
      3       9.9644      0.00000
      4      10.1997      0.00000
      5      11.2757      0.00000
      6      13.4590      0.00000
      7      14.6309      0.00000
      8      15.6053      0.00000

 k-point    35 :       0.4167    0.4167    0.4167
  band No.  band energies     occupation 
      1       2.8112      2.00000
      2       3.5643      2.00000
      3       3.9520      2.00000
      4       4.6783      2.00000
      5       9.1174      1.74792
      6      10.1465      0.00000
      7      14.4626      0.00000
      8      15.3703      0.00000

 k-point    36 :      -0.4167    0.4167    0.4167
  band No.  band energies     occupation 
      1       0.8397      2.00000
      2       1.9634      2.00000
      3       4.8917      2.00000
      4       5.9806      2.00000
      5      12.7807      0.00000
      6      13.4497      0.00000
      7      14.4384      0.00000
      8      14.8406      0.00000


--------------------------------------------------------------------------------------------------------


 soft charge-density along one line, spin component           1
         0         1         2         3         4         5         6         7         8         9
 total charge-density along one line
 
 pseudopotential strength for first ion, spin component:           1
 18.074  25.215   0.000  -0.000  -0.000   0.000  -0.000  -0.000
 25.215  35.182   0.000  -0.000  -0.000   0.000  -0.000  -0.000
  0.000   0.000   4.110  -0.000   0.000   7.658  -0.000   0.000
 -0.000  -0.000  -0.000   4.110   0.000  -0.000   7.658   0.000
 -0.000  -0.000   0.000   0.000   4.110   0.000   0.000   7.658
  0.000   0.000   7.658  -0.000   0.000  14.278  -0.000   0.000
 -0.000  -0.000  -0.000   7.658   0.000  -0.000  14.278   0.000
 -0.000  -0.000   0.000   0.000   7.658   0.000   0.000  14.278
 total augmentation occupancy for first ion, spin component:           1
  4.328  -1.703   0.000   0.000  -0.000  -0.000   0.000   0.000
 -1.703   1.124   0.000   0.000   0.000   0.000   0.000  -0.000
 -0.000   0.000   2.086   0.000   0.000  -0.469   0.000  -0.000
  0.000   0.000   0.000   2.075   0.000   0.000  -0.469   0.000
  0.000   0.000   0.000  -0.000   2.086   0.000   0.000  -0.469
  0.000   0.000  -0.469   0.000   0.000   0.118   0.000  -0.000
  0.000   0.000   0.000  -0.469   0.000   0.000   0.118  -0.000
  0.000  -0.000  -0.000   0.000  -0.469   0.000   0.000   0.118


------------------------ aborting loop because EDIFF is reached ----------------------------------------


    CHARGE:  cpu time    0.0280: real time    0.0164
    FORLOC:  cpu time    0.0020: real time    0.0006
    FORNL :  cpu time    0.0480: real time    0.0289
    STRESS:  cpu time    0.2970: real time    0.1928
    FORCOR:  cpu time    0.0240: real time    0.0233
    FORHAR:  cpu time    0.0060: real time    0.0060
    MIXING:  cpu time    0.0070: real time    0.0076
    OFIELD:  cpu time    0.0000: real time    0.0000

  FORCE on cell =-STRESS in cart. coord.  units (eV):
  Direction    XX          YY          ZZ          XY          YZ          ZX
  --------------------------------------------------------------------------------------
  Alpha Z     4.33737     4.33737     4.33737
  Ewald     -88.97921   -88.97921   -88.79666    -0.00000     0.00000    -0.00000
  Hartree     0.36538     0.36538     0.39007    -0.00000    -0.00000    -0.00000
  E(xc)     -24.94026   -24.94026   -24.95837     0.00000    -0.00000    -0.00000
  Local     -11.03942   -11.03942   -11.28850    -0.00001    -0.00000    -0.00000
  n-local    75.47577    77.31172    76.75835    -0.59379    -0.02244    -0.40293
  augment   -12.65940   -12.65940   -12.63101     0.00001     0.00000     0.00000
  Kinetic    69.59056    41.53360    54.57241     9.57039    -0.13522    -0.18961
  Fock        0.00000     0.00000     0.00000     0.00000     0.00000     0.00000
  -------------------------------------------------------------------------------------
  Total      -0.95971    -0.95971    -1.61634     0.00000     0.00000     0.00000
  in kB     -49.52919   -49.52919   -83.41703     0.00000     0.00000     0.00000
  external pressure =      -60.83 kB  Pullay stress =        0.00 kB


 VOLUME and BASIS-vectors are now :
 -----------------------------------------------------------------------------
  energy-cutoff  :      450.00
  volume of cell :       31.04
      direct lattice vectors                 reciprocal lattice vectors
     2.800000000  0.000000000  0.000000000     0.357142857  0.206196525  0.000000000
    -1.400000000  2.424871131  0.000000000     0.000000000  0.412393049  0.000000000
     0.000000000  0.000000000  4.572372000     0.000000000  0.000000000  0.218704865

  length of vectors
     2.800000000  2.800000000  4.572372000     0.412393049  0.412393049  0.218704865


 FORCES acting on ions
    electron-ion (+dipol)            ewald-force                    non-local-force                 convergence-correction
 -----------------------------------------------------------------------------------------------
   0.202E-08 -.117E-08 0.197E-14   -.879E-13 0.735E-13 -.366E-14   -.222E-16 0.133E-17 0.000E+00   -.726E-09 0.419E-09 0.139E-14
   -.200E-07 0.115E-07 -.929E-14   0.881E-13 -.730E-13 0.366E-14   0.208E-16 0.469E-17 0.000E+00   0.728E-09 -.420E-09 -.139E-14
 -----------------------------------------------------------------------------------------------
   -.180E-07 0.104E-07 -.732E-14   0.222E-15 0.538E-15 0.000E+00   -.138E-17 0.602E-17 0.000E+00   0.208E-11 -.120E-11 -.362E-18
 
 
 POSITION                                       TOTAL-FORCE (eV/Angst)
 -----------------------------------------------------------------------------------
      0.00000      0.00000      0.00000        -0.000000      0.000000      0.000000
     -0.00000      1.61658      2.28619         0.000000      0.000000      0.000000
 -----------------------------------------------------------------------------------
    total drift:                               -0.000000      0.000000     -0.000000


--------------------------------------------------------------------------------------------------------



  FREE ENERGIE OF THE ION-ELECTRON SYSTEM (eV)
  ---------------------------------------------------
  free  energy   TOTEN  =        -9.80184349 eV

  energy  without entropy=       -9.79846859  energy(sigma->0) =       -9.80015604
 


--------------------------------------------------------------------------------------------------------


    POTLOK:  cpu time    0.0240: real time    0.0236


--------------------------------------------------------------------------------------------------------




--------------------------------------------------------------------------------------------------------


    WAVPRE:  cpu time    0.0020: real time    0.0028
 FEWALD executed in parallel
    FEWALD:  cpu time    0.0000: real time    0.0002
    GENKIN:  cpu time    0.0090: real time    0.0090
    ORTHCH:  cpu time    0.1660: real time    0.0977
     LOOP+:  cpu time   17.4283: real time   11.0557


----------------------------------------- Iteration    2(   1)  ---------------------------------------


    POTLOK:  cpu time    0.0370: real time    0.0220
    SETDIJ:  cpu time    0.0100: real time    0.0051
     EDDAV:  cpu time    1.7727: real time    1.0658
       DOS:  cpu time    0.0030: real time    0.0014
    CHARGE:  cpu time    0.0400: real time    0.0250
    MIXING:  cpu time    0.0020: real time    0.0007
    --------------------------------------------
      LOOP:  cpu time    1.8677: real time    1.1230

 eigenvalue-minimisations  :   808
 total energy-change (2. order) :-0.1035509E-01  (-0.1319662E-01)
 number of electron       8.0000000 magnetization 
 augmentation part       -0.4961118 magnetization 

 Broyden mixing:
  rms(total) = 0.21182E-01    rms(broyden)= 0.21181E-01
  rms(prec ) = 0.50154E-01
  weight for this iteration     100.00

 Free energy of the ion-electron system (eV)
  ---------------------------------------------------
  alpha Z        PSCENC =         4.33736774
  Ewald energy   TEWEN  =      -266.74369480
  -Hartree energ DENC   =        -1.12107131
  -exchange      EXHF   =         0.00000000
  -V(xc)+E(xc)   XCENC  =       -17.90677409
  PAW double counting   =       511.88116233     -476.68808676
  entropy T*S    EENTRO =        -0.00328088
  eigenvalues    EBANDS =        30.30025247
  atomic energy  EATOM  =       206.13192747
  Solvation  Ediel_sol  =         0.00000000
  ---------------------------------------------------
  free energy    TOTEN  =        -9.81219783 eV

  energy without entropy =       -9.80891695  energy(sigma->0) =       -9.81055739


--------------------------------------------------------------------------------------------------------




----------------------------------------- Iteration    2(   2)  ---------------------------------------


    POTLOK:  cpu time    0.0470: real time    0.0269
    SETDIJ:  cpu time    0.0110: real time    0.0084
     EDDAV:  cpu time    1.8137: real time    1.0992
       DOS:  cpu time    0.0090: real time    0.0045
    CHARGE:  cpu time    0.0190: real time    0.0120
    MIXING:  cpu time    0.0020: real time    0.0009
    --------------------------------------------
      LOOP:  cpu time    1.9057: real time    1.1545

 eigenvalue-minimisations  :   640
 total energy-change (2. order) : 0.1034200E-02  (-0.2419443E-03)
 number of electron       8.0000000 magnetization 
 augmentation part       -0.4962443 magnetization 

 Broyden mixing:
  rms(total) = 0.12006E-01    rms(broyden)= 0.12006E-01
  rms(prec ) = 0.28766E-01
  weight for this iteration     100.00

 eigenvalues of (default mixing * dielectric matrix)
  average eigenvalue GAMMA=   2.1160
  2.1160

 Free energy of the ion-electron system (eV)
  ---------------------------------------------------
  alpha Z        PSCENC =         4.33736774
  Ewald energy   TEWEN  =      -266.74369480
  -Hartree energ DENC   =        -1.12330600
  -exchange      EXHF   =         0.00000000
  -V(xc)+E(xc)   XCENC  =       -17.90658393
  PAW double counting   =       511.83664169     -476.64372702
  entropy T*S    EENTRO =        -0.00330359
  eigenvalues    EBANDS =        30.30351481
  atomic energy  EATOM  =       206.13192747
  Solvation  Ediel_sol  =         0.00000000
  ---------------------------------------------------
  free energy    TOTEN  =        -9.81116363 eV

  energy without entropy =       -9.80786004  energy(sigma->0) =       -9.80951183


--------------------------------------------------------------------------------------------------------




----------------------------------------- Iteration    2(   3)  ---------------------------------------


    POTLOK:  cpu time    0.0400: real time    0.0255
    SETDIJ:  cpu time    0.0030: real time    0.0017
     EDDAV:  cpu time    1.8167: real time    1.1378
       DOS:  cpu time    0.0020: real time    0.0009
    CHARGE:  cpu time    0.0310: real time    0.0186
    MIXING:  cpu time    0.0020: real time    0.0010
    --------------------------------------------
      LOOP:  cpu time    1.8997: real time    1.1878

 eigenvalue-minimisations  :   816
 total energy-change (2. order) : 0.5629793E-03  (-0.1406650E-03)
 number of electron       8.0000000 magnetization 
 augmentation part       -0.4961985 magnetization 

 Broyden mixing:
  rms(total) = 0.11137E-02    rms(broyden)= 0.11137E-02
  rms(prec ) = 0.18238E-02
  weight for this iteration     100.00

 eigenvalues of (default mixing * dielectric matrix)
  average eigenvalue GAMMA=   1.6303
  1.0210  2.2397

 Free energy of the ion-electron system (eV)
  ---------------------------------------------------
  alpha Z        PSCENC =         4.33736774
  Ewald energy   TEWEN  =      -266.74369480
  -Hartree energ DENC   =        -1.12818747
  -exchange      EXHF   =         0.00000000
  -V(xc)+E(xc)   XCENC  =       -17.90623808
  PAW double counting   =       511.67844451     -476.48601334
  entropy T*S    EENTRO =        -0.00334034
  eigenvalues    EBANDS =        30.30913367
  atomic energy  EATOM  =       206.13192747
  Solvation  Ediel_sol  =         0.00000000
  ---------------------------------------------------
  free energy    TOTEN  =        -9.81060065 eV

  energy without entropy =       -9.80726031  energy(sigma->0) =       -9.80893048


--------------------------------------------------------------------------------------------------------




----------------------------------------- Iteration    2(   4)  ---------------------------------------


    POTLOK:  cpu time    0.0350: real time    0.0201
    SETDIJ:  cpu time    0.0070: real time    0.0058
     EDDAV:  cpu time    1.6967: real time    1.0638
       DOS:  cpu time    0.0110: real time    0.0073
    --------------------------------------------
      LOOP:  cpu time    1.7537: real time    1.0995

 eigenvalue-minimisations  :   592
 total energy-change (2. order) :-0.4655117E-05  (-0.5147553E-05)
 number of electron       8.0000000 magnetization 
 augmentation part       -0.4961985 magnetization 

 Free energy of the ion-electron system (eV)
  ---------------------------------------------------
  alpha Z        PSCENC =         4.33736774
  Ewald energy   TEWEN  =      -266.74369480
  -Hartree energ DENC   =        -1.12783071
  -exchange      EXHF   =         0.00000000
  -V(xc)+E(xc)   XCENC  =       -17.90628572
  PAW double counting   =       511.74425703     -476.55178746
  entropy T*S    EENTRO =        -0.00333923
  eigenvalues    EBANDS =        30.30878038
  atomic energy  EATOM  =       206.13192747
  Solvation  Ediel_sol  =         0.00000000
  ---------------------------------------------------
  free energy    TOTEN  =        -9.81060531 eV

  energy without entropy =       -9.80726608  energy(sigma->0) =       -9.80893569


--------------------------------------------------------------------------------------------------------




 average (electrostatic) potential at core
  the test charge radii are     0.9892
  (the norm of the test charge is              1.0000)
       1 -80.8549       2 -80.8549
 
 
 
 E-fermi :   9.2174     XC(G=0): -10.9141     alpha+bet :-15.4516


 k-point     1 :       0.0833    0.0833    0.0833
  band No.  band energies     occupation 
      1      -3.9999      2.00000
      2       1.7740      2.00000
      3       4.1747      2.00000
      4      13.0035      0.00000
      5      13.6826      0.00000
      6      17.7270      0.00000
      7      18.2531      0.00000
      8      18.3726      0.00000

 k-point     2 :       0.2500    0.0833    0.0833
  band No.  band energies     occupation 
      1      -2.3205      2.00000
      2       3.4138      2.00000
      3       5.7666      2.00000
      4       7.5273      2.00000
      5      11.2977      0.00000
      6      12.9373      0.00000
      7      15.0083      0.00000
      8      16.4821      0.00000

 k-point     3 :       0.4167    0.0833    0.0833
  band No.  band energies     occupation 
      1       0.6115      2.00000
      2       2.7609      2.00000
      3       6.2788      2.00000
      4       8.0384      2.00000
      5       8.8283      2.00000
      6      10.3685      0.00000
      7      10.7556      0.00000
      8      15.5817      0.00000

 k-point     4 :      -0.4167    0.0833    0.0833
  band No.  band energies     occupation 
      1      -0.9930      2.00000
      2       4.6869      2.00000
      3       5.0029      2.00000
      4       7.0090      2.00000
      5      10.4954      0.00000
      6      10.7139      0.00000
      7      12.7649      0.00000
      8      15.8788      0.00000

 k-point     5 :      -0.2500    0.0833    0.0833
  band No.  band energies     occupation 
      1      -3.3259      2.00000
      2       2.4327      2.00000
      3       4.8153      2.00000
      4      10.3022      0.00000
      5      12.2420      0.00000
      6      15.4985      0.00000
      7      16.9649      0.00000
      8      17.4752      0.00000

 k-point     6 :      -0.0833    0.0833    0.0833
  band No.  band energies     occupation 
      1      -4.3378      2.00000
      2       1.4433      2.00000
      3       3.8530      2.00000
      4      14.6698      0.00000
      5      15.6865      0.00000
      6      17.6740      0.00000
      7      18.9878      0.00000
      8      19.0251      0.00000

 k-point     7 :       0.2500    0.2500    0.0833
  band No.  band energies     occupation 
      1      -0.0041      2.00000
      2       5.4825      2.00000
      3       5.7222      2.00000
      4       6.4356      2.00000
      5       7.9299      2.00000
      6      11.0499      0.00000
      7      11.7390      0.00000
      8      13.1560      0.00000

 k-point     8 :       0.4167    0.2500    0.0833
  band No.  band energies     occupation 
      1       1.5910      2.00000
      2       3.6500      2.00000
      3       5.7874      2.00000
      4       7.2283      2.00000
      5       8.9760      1.99936
      6       9.6221      0.00000
      7      10.8632      0.00000
      8      11.8958      0.00000

 k-point     9 :      -0.4167    0.2500    0.0833
  band No.  band energies     occupation 
      1      -1.3218      2.00000
      2       4.3854      2.00000
      3       6.5128      2.00000
      4       6.7248      2.00000
      5       8.6119      2.00000
      6      11.9868      0.00000
      7      13.5961      0.00000
      8      14.4722      0.00000

 k-point    10 :      -0.2500    0.2500    0.0833
  band No.  band energies     occupation 
      1      -2.9901      2.00000
      2       2.7607      2.00000
      3       5.1337      2.00000
      4       8.7945      2.00000
      5      13.4418      0.00000
      6      14.0896      0.00000
      7      15.7305      0.00000
      8      16.4185      0.00000

 k-point    11 :       0.4167    0.4167    0.0833
  band No.  band energies     occupation 
      1       1.5972      2.00000
      2       2.4210      2.00000
      3       7.2729      2.00000
      4       7.8530      2.00000
      5       7.9392      2.00000
      6       9.4956      0.00008
      7      10.4203      0.00000
      8      13.4388      0.00000

 k-point    12 :      -0.4167    0.4167    0.0833
  band No.  band energies     occupation 
      1      -0.3408      2.00000
      2       3.6998      2.00000
      3       5.3495      2.00000
      4       7.5759      2.00000
      5       9.3427      0.07634
      6      11.6156      0.00000
      7      12.2632      0.00000
      8      14.6163      0.00000

 k-point    13 :       0.0833    0.0833    0.2500
  band No.  band energies     occupation 
      1      -3.6069      2.00000
      2      -0.1105      2.00000
      3       6.7577      2.00000
      4      13.3526      0.00000
      5      13.9715      0.00000
      6      16.1353      0.00000
      7      16.5357      0.00000
      8      17.1001      0.00000

 k-point    14 :       0.2500    0.0833    0.2500
  band No.  band energies     occupation 
      1      -1.9304      2.00000
      2       1.5404      2.00000
      3       7.8841      2.00000
      4       8.3037      2.00000
      5      11.2284      0.00000
      6      11.6668      0.00000
      7      14.7953      0.00000
      8      16.5750      0.00000

 k-point    15 :       0.4167    0.0833    0.2500
  band No.  band energies     occupation 
      1       0.9968      2.00000
      2       3.1359      2.00000
      3       4.4320      2.00000
      4       6.4917      2.00000
      5      10.7030      0.00000
      6      11.1231      0.00000
      7      12.9099      0.00000
      8      14.2711      0.00000

 k-point    16 :      -0.4167    0.0833    0.2500
  band No.  band energies     occupation 
      1      -0.6052      2.00000
      2       2.8432      2.00000
      3       5.3584      2.00000
      4       8.5423      2.00000
      5       9.7557      0.00000
      6      11.0372      0.00000
      7      14.0620      0.00000
      8      15.2878      0.00000

 k-point    17 :      -0.2500    0.0833    0.2500
  band No.  band energies     occupation 
      1      -2.9341      2.00000
      2       0.5523      2.00000
      3       7.3835      2.00000
      4      10.6591      0.00000
      5      12.5741      0.00000
      6      13.8803      0.00000
      7      15.7277      0.00000
      8      16.6625      0.00000

 k-point    18 :      -0.0833    0.0833    0.2500
  band No.  band energies     occupation 
      1      -3.9443      2.00000
      2      -0.4429      2.00000
      3       6.4419      2.00000
      4      14.9692      0.00000
      5      15.9329      0.00000
      6      16.0143      0.00000
      7      17.6348      0.00000
      8      18.5498      0.00000

 k-point    19 :       0.2500    0.2500    0.2500
  band No.  band energies     occupation 
      1       0.3819      2.00000
      2       3.8123      2.00000
      3       5.9146      2.00000
      4       6.8025      2.00000
      5       9.2449      0.69675
      6       9.6630      0.00000
      7      11.0085      0.00000
      8      15.4020      0.00000

 k-point    20 :       0.4167    0.2500    0.2500
  band No.  band energies     occupation 
      1       1.9743      2.00000
      2       4.0246      2.00000
      3       5.3876      2.00000
      4       6.1626      2.00000
      5       7.3786      2.00000
      6       9.3607      0.04264
      7      12.1131      0.00000
      8      14.0114      0.00000

 k-point    21 :      -0.4167    0.2500    0.2500
  band No.  band energies     occupation 
      1      -0.9335      2.00000
      2       2.5210      2.00000
      3       6.8975      2.00000
      4       8.9652      1.99964
      5       9.1335      1.76439
      6      10.3240      0.00000
      7      12.3161      0.00000
      8      16.2638      0.00000

 k-point    22 :      -0.2500    0.2500    0.2500
  band No.  band energies     occupation 
      1      -2.5989      2.00000
      2       0.8824      2.00000
      3       7.6902      2.00000
      4       9.1582      1.59724
      5      12.4493      0.00000
      6      13.7832      0.00000
      7      15.7690      0.00000
      8      16.7429      0.00000

 k-point    23 :       0.4167    0.4167    0.2500
  band No.  band energies     occupation 
      1       1.9821      2.00000
      2       2.7976      2.00000
      3       5.4129      2.00000
      4       6.1463      2.00000
      5       8.3005      2.00000
      6      11.2911      0.00000
      7      11.9939      0.00000
      8      13.3099      0.00000

 k-point    24 :      -0.4167    0.4167    0.2500
  band No.  band energies     occupation 
      1       0.0459      2.00000
      2       3.4752      2.00000
      3       4.0939      2.00000
      4       7.3948      2.00000
      5      10.2709      0.00000
      6      12.6075      0.00000
      7      13.8631      0.00000
      8      14.9953      0.00000

 k-point    25 :       0.0833    0.0833    0.4167
  band No.  band energies     occupation 
      1      -2.8235      2.00000
      2      -1.6548      2.00000
      3       9.6771      0.00000
      4      12.7886      0.00000
      5      14.0426      0.00000
      6      14.8080      0.00000
      7      15.1817      0.00000
      8      15.8539      0.00000

 k-point    26 :       0.2500    0.0833    0.4167
  band No.  band energies     occupation 
      1      -1.1528      2.00000
      2       0.0074      2.00000
      3       8.6173      2.00000
      4       9.6405      0.00000
      5      11.2886      0.00000
      6      12.3063      0.00000
      7      13.5302      0.00000
      8      14.5000      0.00000

 k-point    27 :       0.4167    0.0833    0.4167
  band No.  band energies     occupation 
      1       1.7644      2.00000
      2       2.9046      2.00000
      3       3.9050      2.00000
      4       5.0223      2.00000
      5      11.4160      0.00000
      6      12.3841      0.00000
      7      13.9514      0.00000
      8      15.4809      0.00000

 k-point    28 :      -0.4167    0.0833    0.4167
[...]

 k-point     2 :       0.2500    0.0833    0.0833
  band No.  band energies     occupation 
      1      -2.3564      2.00000
      2       3.5778      2.00000
      3       5.9430      2.00000
      4       7.3481      2.00000
      5      11.0728      0.00000
      6      12.9573      0.00000
      7      15.0205      0.00000
      8      16.4864      0.00000

 k-point     3 :       0.4167    0.0833    0.0833
  band No.  band energies     occupation 
      1       0.5207      2.00000
      2       2.6623      2.00000
      3       6.3788      2.00000
      4       8.1547      2.00000
      5       8.9590      2.00000
      6      10.1600      0.00000
      7      10.8432      0.00000
      8      15.5964      0.00000

 k-point     4 :      -0.4167    0.0833    0.0833
  band No.  band energies     occupation 
      1      -1.0510      2.00000
      2       4.7504      2.00000
      3       4.9385      2.00000
      4       7.1669      2.00000
      5      10.4185      0.00000
      6      10.6385      0.00000
      7      12.8203      0.00000
      8      15.8903      0.00000

 k-point     5 :      -0.2500    0.0833    0.0833
  band No.  band energies     occupation 
      1      -3.3456      2.00000
      2       2.6151      2.00000
      3       5.0084      2.00000
      4      10.0732      0.00000
      5      12.0071      0.00000
      6      15.4660      0.00000
      7      16.9371      0.00000
      8      17.4440      0.00000

 k-point     6 :      -0.0833    0.0833    0.0833
  band No.  band energies     occupation 
      1      -4.3414      2.00000
      2       1.6439      2.00000
      3       4.0614      2.00000
      4      14.3687      0.00000
      5      15.3664      0.00000
      6      17.4538      0.00000
      7      18.7627      0.00000
      8      19.2118      0.00000

 k-point     7 :       0.2500    0.2500    0.0833
  band No.  band energies     occupation 
      1      -0.0787      2.00000
      2       5.3234      2.00000
      3       5.8205      2.00000
      4       6.3197      2.00000
      5       8.0736      2.00000
      6      11.0367      0.00000
      7      11.8625      0.00000
      8      13.2335      0.00000

 k-point     8 :       0.4167    0.2500    0.0833
  band No.  band energies     occupation 
      1       1.4839      2.00000
      2       3.5216      2.00000
      3       5.6633      2.00000
      4       7.3109      2.00000
      5       9.0698      1.99934
      6       9.7147      0.00000
      7      10.9475      0.00000
      8      12.0085      0.00000

 k-point     9 :      -0.4167    0.2500    0.0833
  band No.  band energies     occupation 
      1      -1.3741      2.00000
      2       4.5298      2.00000
      3       6.3470      2.00000
      4       6.8813      2.00000
      5       8.4389      2.00000
      6      12.0078      0.00000
      7      13.6315      0.00000
      8      14.5373      0.00000

 k-point    10 :      -0.2500    0.2500    0.0833
  band No.  band energies     occupation 
      1      -3.0152      2.00000
      2       2.9370      2.00000
      3       5.3216      2.00000
      4       8.5958      2.00000
      5      13.1648      0.00000
      6      14.0845      0.00000
      7      15.5386      0.00000
      8      16.4006      0.00000

 k-point    11 :       0.4167    0.4167    0.0833
  band No.  band energies     occupation 
      1       1.4730      2.00000
      2       2.3428      2.00000
      3       7.3088      2.00000
      4       7.7745      2.00000
      5       8.0044      2.00000
      6       9.6326      0.00001
      7      10.4993      0.00000
      8      13.5023      0.00000

 k-point    12 :      -0.4167    0.4167    0.0833
  band No.  band energies     occupation 
      1      -0.4109      2.00000
      2       3.5814      2.00000
      3       5.4758      2.00000
      4       7.7211      2.00000
      5       9.4356      0.07731
      6      11.6908      0.00000
      7      12.0040      0.00000
      8      14.3932      0.00000

 k-point    13 :       0.0833    0.0833    0.2500
  band No.  band energies     occupation 
      1      -3.6034      2.00000
      2       0.0068      2.00000
      3       7.0565      2.00000
      4      13.0777      0.00000
      5      13.7587      0.00000
      6      16.1487      0.00000
      7      16.7873      0.00000
      8      16.9725      0.00000

 k-point    14 :       0.2500    0.0833    0.2500
  band No.  band energies     occupation 
      1      -1.9539      2.00000
      2       1.6293      2.00000
      3       7.7171      2.00000
      4       8.5667      2.00000
      5      11.1615      0.00000
      6      11.4695      0.00000
      7      14.7096      0.00000
      8      16.6928      0.00000

 k-point    15 :       0.4167    0.0833    0.2500
  band No.  band energies     occupation 
      1       0.9182      2.00000
      2       3.0489      2.00000
      3       4.4651      2.00000
      4       6.5218      2.00000
      5      10.5096      0.00000
      6      11.3318      0.00000
      7      13.0315      0.00000
      8      14.2635      0.00000

 k-point    16 :      -0.4167    0.0833    0.2500
  band No.  band energies     occupation 
      1      -0.6510      2.00000
      2       2.9083      2.00000
      3       5.2317      2.00000
      4       8.5579      2.00000
      5       9.9671      0.00000
      6      10.8378      0.00000
      7      14.0125      0.00000
      8      15.4044      0.00000

 k-point    17 :      -0.2500    0.0833    0.2500
  band No.  band energies     occupation 
      1      -2.9414      2.00000
      2       0.6582      2.00000
      3       7.6698      2.00000
      4      10.4438      0.00000
      5      12.3560      0.00000
      6      13.7729      0.00000
      7      15.6317      0.00000
      8      16.9954      0.00000

 k-point    18 :      -0.0833    0.0833    0.2500
  band No.  band energies     occupation 
      1      -3.9354      2.00000
      2      -0.3200      2.00000
      3       6.7465      2.00000
      4      14.7032      0.00000
      5      15.7063      0.00000
      6      16.3801      0.00000
      7      17.4284      0.00000
      8      18.3231      0.00000

 k-point    19 :       0.2500    0.2500    0.2500
  band No.  band energies     occupation 
      1       0.3195      2.00000
      2       3.8590      2.00000
      3       5.7473      2.00000
      4       6.6994      2.00000
      5       9.1805      1.93445
      6       9.7444      0.00000
      7      11.1863      0.00000
      8      15.5656      0.00000

 k-point    20 :       0.4167    0.2500    0.2500
  band No.  band energies     occupation 
      1       1.8792      2.00000
      2       3.9075      2.00000
      3       5.4024      2.00000
      4       6.0534      2.00000
      5       7.3774      2.00000
      6       9.3719      0.38653
      7      12.3189      0.00000
      8      14.1925      0.00000

 k-point    21 :      -0.4167    0.2500    0.2500
  band No.  band energies     occupation 
      1      -0.9734      2.00000
      2       2.5926      2.00000
      3       6.7362      2.00000
      4       8.8072      2.00000
      5       9.3471      0.60709
      6      10.2999      0.00000
      7      12.2901      0.00000
      8      16.4399      0.00000

 k-point    22 :      -0.2500    0.2500    0.2500
  band No.  band energies     occupation 
      1      -2.6115      2.00000
      2       0.9827      2.00000
      3       7.9677      2.00000
      4       8.9746      2.00000
      5      12.3733      0.00000
      6      13.5186      0.00000
      7      15.6969      0.00000
      8      16.6009      0.00000

 k-point    23 :       0.4167    0.4167    0.2500
  band No.  band energies     occupation 
      1       1.8697      2.00000
      2       2.7316      2.00000
      3       5.4058      2.00000
      4       6.2018      2.00000
      5       8.1430      2.00000
      6      11.2790      0.00000
      7      12.1992      0.00000
      8      13.4867      0.00000

 k-point    24 :      -0.4167    0.4167    0.2500
  band No.  band energies     occupation 
      1      -0.0120      2.00000
      2       3.5194      2.00000
      3       3.9983      2.00000
      4       7.4073      2.00000
      5      10.5026      0.00000
      6      12.3607      0.00000
      7      13.9966      0.00000
      8      14.8268      0.00000

 k-point    25 :       0.0833    0.0833    0.4167
  band No.  band energies     occupation 
      1      -2.7950      2.00000
      2      -1.5888      2.00000
      3      10.0590      0.00000
      4      13.1980      0.00000
      5      13.7924      0.00000
      6      14.6124      0.00000
      7      15.0022      0.00000
      8      15.6788      0.00000

 k-point    26 :       0.2500    0.0833    0.4167
  band No.  band energies     occupation 
      1      -1.1515      2.00000
      2       0.0458      2.00000
      3       8.4739      2.00000
      4       9.5549      0.00055
      5      11.5861      0.00000
      6      12.1460      0.00000
      7      13.4117      0.00000
      8      14.8882      0.00000

 k-point    27 :       0.4167    0.0833    0.4167
  band No.  band energies     occupation 
      1       1.7099      2.00000
      2       2.8842      2.00000
      3       3.8475      2.00000
      4       5.0000      2.00000
      5      11.2427      0.00000
      6      12.2694      0.00000
      7      14.2303      0.00000
      8      15.7155      0.00000

 k-point    28 :      -0.4167    0.0833    0.4167
  band No.  band energies     occupation 
      1       0.1466      2.00000
      2       1.3363      2.00000
      3       5.9998      2.00000
      4       7.1401      2.00000
      5      11.5371      0.00000
      6      12.3224      0.00000
      7      13.2000      0.00000
      8      15.6753      0.00000

 k-point    29 :      -0.2500    0.0833    0.4167
  band No.  band energies     occupation 
      1      -2.1354      2.00000
      2      -0.9327      2.00000
      3      10.5870      0.00000
      4      11.1741      0.00000
      5      12.3543      0.00000
      6      12.9368      0.00000
      7      14.1736      0.00000
      8      14.3667      0.00000

 k-point    30 :      -0.0833    0.0833    0.4167
  band No.  band energies     occupation 
      1      -3.1258      2.00000
      2      -1.9179      2.00000
      3       9.7677      0.00000
      4      13.0359      0.00000
      5      15.4417      0.00000
      6      16.3736      0.00000
      7      16.4170      0.00000
      8      17.3200      0.00000

 k-point    31 :       0.2500    0.2500    0.4167
  band No.  band energies     occupation 
      1       1.1133      2.00000
      2       2.2969      2.00000
      3       6.5149      2.00000
      4       7.4415      2.00000
      5       7.6781      2.00000
      6       8.5603      2.00000
      7      13.7945      0.00000
      8      16.4438      0.00000

 k-point    32 :       0.4167    0.2500    0.4167
  band No.  band energies     occupation 
      1       2.6665      2.00000
      2       3.8320      2.00000
      3       4.7071      2.00000
      4       5.8536      2.00000
      5       6.8147      2.00000
      6       7.9393      2.00000
      7      15.0477      0.00000
      8      16.4421      0.00000

 k-point    33 :      -0.4167    0.2500    0.4167
  band No.  band energies     occupation 
      1      -0.1747      2.00000
      2       1.0170      2.00000
      3       7.4983      2.00000
      4       8.6212      2.00000
      5       9.5529      0.00061
      6      10.5727      0.00000
      7      12.7404      0.00000
      8      15.6735      0.00000

 k-point    34 :      -0.2500    0.2500    0.4167
  band No.  band energies     occupation 
      1      -1.8067      2.00000
      2      -0.6058      2.00000
      3       9.7019      0.00000
      4      10.5209      0.00000
      5      11.3422      0.00000
      6      14.1321      0.00000
      7      14.2224      0.00000
      8      15.2638      0.00000

 k-point    35 :       0.4167    0.4167    0.4167
  band No.  band energies     occupation 
      1       2.6586      2.00000
      2       3.4836      2.00000
      3       3.8747      2.00000
      4       4.6798      2.00000
      5       8.8914      2.00000
      6       9.9897      0.00000
      7      14.9439      0.00000
      8      15.8587      0.00000

 k-point    36 :      -0.4167    0.4167    0.4167
  band No.  band energies     occupation 
      1       0.7832      2.00000
      2       1.9685      2.00000
      3       4.7563      2.00000
      4       5.9083      2.00000
      5      13.0714      0.00000
      6      13.2760      0.00000
      7      14.1273      0.00000
      8      14.9665      0.00000


--------------------------------------------------------------------------------------------------------


 soft charge-density along one line, spin component           1
         0         1         2         3         4         5         6         7         8         9
 total charge-density along one line
 
 pseudopotential strength for first ion, spin component:           1
 18.073  25.214  -0.000   0.000   0.000  -0.000   0.000   0.000
 25.214  35.181  -0.000   0.000   0.000  -0.000   0.000   0.000
 -0.000  -0.000   4.110  -0.000  -0.000   7.658  -0.000  -0.000
  0.000   0.000  -0.000   4.110   0.000  -0.000   7.658   0.000
  0.000   0.000  -0.000   0.000   4.110  -0.000   0.000   7.658
 -0.000  -0.000   7.658  -0.000  -0.000  14.278  -0.000  -0.000
  0.000   0.000  -0.000   7.658   0.000  -0.000  14.278   0.000
  0.000   0.000  -0.000   0.000   7.658  -0.000   0.000  14.278
 total augmentation occupancy for first ion, spin component:           1
  4.340  -1.712   0.000   0.000   0.000  -0.000   0.000  -0.000
 -1.712   1.134  -0.000   0.000  -0.000   0.000   0.000   0.000
  0.000  -0.000   2.046   0.000   0.000  -0.459   0.000   0.000
  0.000   0.000   0.000   2.161   0.000  -0.000  -0.494   0.000
  0.000  -0.000   0.000   0.000   2.046   0.000  -0.000  -0.459
  0.000  -0.000  -0.459   0.000   0.000   0.115   0.000  -0.000
  0.000   0.000   0.000  -0.494  -0.000   0.000   0.126  -0.000
  0.000   0.000   0.000   0.000  -0.459   0.000   0.000   0.115


------------------------ aborting loop because EDIFF is reached ----------------------------------------


    CHARGE:  cpu time    0.0240: real time    0.0159
    FORLOC:  cpu time    0.0010: real time    0.0006
    FORNL :  cpu time    0.0300: real time    0.0202
    STRESS:  cpu time    0.2630: real time    0.1742
    FORCOR:  cpu time    0.0570: real time    0.0385
    FORHAR:  cpu time    0.0120: real time    0.0080
    MIXING:  cpu time    0.0010: real time    0.0008
    OFIELD:  cpu time    0.0000: real time    0.0000

  FORCE on cell =-STRESS in cart. coord.  units (eV):
  Direction    XX          YY          ZZ          XY          YZ          ZX
  --------------------------------------------------------------------------------------
  Alpha Z     4.33737     4.33737     4.33737
  Ewald     -90.30441   -90.30441   -86.08846    -0.00000    -0.00000    -0.00000
  Hartree     0.27782     0.27782     0.59879    -0.00000    -0.00000    -0.00000
  E(xc)     -24.94074   -24.94074   -24.98322    -0.00000     0.00000    -0.00000
  Local      -9.63080    -9.63080   -14.29834    -0.00001    -0.00000    -0.00000
  n-local    75.50872    77.16217    77.29472    -0.47885    -0.03453    -0.35510
  augment   -12.66352   -12.66352   -12.71336     0.00001     0.00000     0.00000
  Kinetic    69.02307    41.93955    54.74403     8.99053     0.05144     0.97208
  Fock        0.00000     0.00000     0.00000     0.00000     0.00000     0.00000
  -------------------------------------------------------------------------------------
  Total      -1.10752    -1.10752    -1.10847     0.00000    -0.00000     0.00000
  in kB     -57.15784   -57.15784   -57.20661     0.00000    -0.00000     0.00000
  external pressure =      -57.17 kB  Pullay stress =        0.00 kB


 VOLUME and BASIS-vectors are now :
 -----------------------------------------------------------------------------
  energy-cutoff  :      450.00
  volume of cell :       31.04
      direct lattice vectors                 reciprocal lattice vectors
     2.836214623  0.000000000  0.000000000     0.352582626  0.203563674  0.000000000
    -1.418107311  2.456233914 -0.000000000     0.000000000  0.407127348  0.000000000
     0.000000000  0.000000000  4.456351466     0.000000000  0.000000000  0.224398818

  length of vectors
     2.836214623  2.836214623  4.456351466     0.407127348  0.407127348  0.224398818


 FORCES acting on ions
    electron-ion (+dipol)            ewald-force                    non-local-force                 convergence-correction
 -----------------------------------------------------------------------------------------------
   0.270E-08 -.156E-08 0.517E-14   -.102E-12 0.730E-13 -.305E-14   0.173E-16 -.173E-17 0.000E+00   0.416E-09 -.240E-09 -.108E-15
   0.362E-07 -.209E-07 -.140E-13   0.104E-12 -.733E-13 0.305E-14   -.147E-16 0.000E+00 0.000E+00   -.415E-09 0.239E-09 0.204E-16
 -----------------------------------------------------------------------------------------------
   0.389E-07 -.225E-07 -.879E-14   0.195E-14 -.319E-15 -.696E-17   0.260E-17 -.173E-17 0.000E+00   0.107E-11 -.619E-12 -.876E-16
 
 
 POSITION                                       TOTAL-FORCE (eV/Angst)
 -----------------------------------------------------------------------------------
     -0.00000      0.00000      0.00000        -0.000000      0.000000      0.000000
     -0.00000      1.63749      2.22818         0.000000     -0.000000     -0.000000
 -----------------------------------------------------------------------------------
    total drift:                                0.000000     -0.000000     -0.000000


--------------------------------------------------------------------------------------------------------



  FREE ENERGIE OF THE ION-ELECTRON SYSTEM (eV)
  ---------------------------------------------------
  free  energy   TOTEN  =        -9.81817234 eV

  energy  without entropy=       -9.81447643  energy(sigma->0) =       -9.81632438
 
 d Force = 0.0000000E+00[ 0.000E+00, 0.000E+00]  d Energy = 0.1228907E-04-0.123E-04
 d Force = 0.0000000E+00[ 0.000E+00, 0.000E+00]  d Ewald  =-0.2457565E-02 0.246E-02


--------------------------------------------------------------------------------------------------------


    POTLOK:  cpu time    0.0610: real time    0.0409


--------------------------------------------------------------------------------------------------------




--------------------------------------------------------------------------------------------------------


  
 reached required accuracy - stopping structural energy minimisation
 writing wavefunctions
     LOOP+:  cpu time    3.8114: real time    2.5025
    4ORBIT:  cpu time    0.0000: real time    0.0000

 total amount of memory used by VASP on root node    35114. kBytes
========================================================================

   base      :      30000. kBytes
   nonl-proj :       1597. kBytes
   fftplans  :        933. kBytes
   grid      :       1772. kBytes
   one-center:          6. kBytes
   wavefun   :        806. kBytes
 
  
  
 General timing and accounting informations for this job:
 ========================================================
  
                  Total CPU time used (sec):       38.773
                            User time (sec):       35.873
                          System time (sec):        2.901
                         Elapsed time (sec):       25.596
  
                   Maximum memory used (kb):       38388.
                   Average memory used (kb):           0.
  
                          Minor page faults:        46357
                          Major page faults:            6
                 Voluntary context switches:          927
