 running on    4 total cores
 distrk:  each k-point on    4 cores,    1 groups
 distr:  one band on    1 cores,    4 groups
 using from now: INCAR     
 vasp.5.4.1 24Jun15 (build Jul 19 2016 16:50:41) complex                        
  
 POSCAR found :  1 types and       2 ions
 LDA part: xc-table for Pade appr. of Perdew
 POSCAR, INCAR and KPOINTS ok, starting setup
 WARNING: small aliasing (wrap around) errors must be expected
 FFT: planning ...
 WAVECAR not read
 entering main loop
       N       E                     dE             d eps       ncg     rms          rms(c)
DAV:   1     0.294093867689E+01    0.29409E+01   -0.30915E+03   576   0.698E+02
DAV:   2    -0.964447042047E+01   -0.12585E+02   -0.12168E+02   848   0.703E+01
DAV:   3    -0.983794011916E+01   -0.19347E+00   -0.19203E+00   808   0.994E+00
DAV:   4    -0.983852295499E+01   -0.58284E-03   -0.58280E-03   832   0.510E-01
DAV:   5    -0.983852373995E+01   -0.78496E-06   -0.78519E-06   768   0.142E-02    0.326E+00
DAV:   6    -0.981491496977E+01    0.23609E-01   -0.88617E-03   656   0.578E-01    0.179E+00
DAV:   7    -0.980192812288E+01    0.12987E-01   -0.16322E-02   760   0.774E-01    0.142E-01
DAV:   8    -0.980184273755E+01    0.85385E-04   -0.12284E-04   840   0.953E-02    0.158E-02
DAV:   9    -0.980184349332E+01   -0.75577E-06   -0.18106E-06   480   0.106E-02
   1 F= -.98018435E+01 E0= -.98001560E+01  d E =-.980184E+01
 curvature:   0.00 expect dE= 0.000E+00 dE for cont linesearch  0.000E+00
 trial: gam= 0.00000 g(F)=  0.968E-51 g(S)=  0.693E-02 ort = 0.000E+00 (trialstep = 0.100E+01)
 search vector abs. value=  0.693E-02
 bond charge predicted
       N       E                     dE             d eps       ncg     rms          rms(c)
DAV:   1    -0.981219783188E+01   -0.10355E-01   -0.13197E-01   808   0.215E+00    0.212E-01
DAV:   2    -0.981116363143E+01    0.10342E-02   -0.24194E-03   640   0.401E-01    0.120E-01
DAV:   3    -0.981060065216E+01    0.56298E-03   -0.14067E-03   816   0.205E-01    0.111E-02
DAV:   4    -0.981060530728E+01   -0.46551E-05   -0.51476E-05   592   0.569E-02
   2 F= -.98106053E+01 E0= -.98089357E+01  d E =-.876181E-02
 trial-energy change:   -0.008762  1 .order   -0.008114   -0.006934   -0.009295
 step:   2.3632(harm=  4.0000)  dis= 0.00000  next Energy=    -9.818581 (dE=-0.167E-01)
 bond charge predicted
       N       E                     dE             d eps       ncg     rms          rms(c)
DAV:   1    -0.982101807625E+01   -0.10417E-01   -0.22727E-01   856   0.289E+00    0.290E-01
DAV:   2    -0.981915414930E+01    0.18639E-02   -0.41744E-03   632   0.525E-01    0.164E-01
DAV:   3    -0.981815187116E+01    0.10023E-02   -0.24855E-03   832   0.273E-01    0.152E-02
DAV:   4    -0.981816004943E+01   -0.81783E-05   -0.89255E-05   648   0.760E-02
   3 F= -.98181600E+01 E0= -.98163054E+01  d E =-.163166E-01
 curvature:  -1.19 expect dE=-0.224E-04 dE for cont linesearch -0.224E-04
 ZBRENT: extrapolating
 opt :   2.4182  next Energy=    -9.818170 (dE=-0.163E-01)
 bond charge predicted
       N       E                     dE             d eps       ncg     rms          rms(c)
DAV:   1    -0.981817396694E+01   -0.22096E-04   -0.36833E-04   896   0.117E-01    0.102E-02
DAV:   2    -0.981817233850E+01    0.16284E-05   -0.56894E-06   440   0.203E-02
   4 F= -.98181723E+01 E0= -.98163244E+01  d E =-.163288E-01
 curvature:  -0.53 expect dE=-0.759E-08 dE for cont linesearch -0.759E-08
 trial: gam=-0.00144 g(F)=  0.851E-50 g(S)=  0.144E-07 ort = 0.998E-05 (trialstep = 0.128E+01)
 search vector abs. value=  0.100E-09
 reached required accuracy - stopping structural energy minimisation
 writing wavefunctions
