<?xml version="1.0" encoding="ISO-8859-1"?>
<modeling>
 <generator>
  <i name="program" type="string">vasp </i>
  <i name="version" type="string">5.4.1  </i>
  <i name="subversion" type="string">24Jun15 (build Jul 19 2016 16:50:41) complex                          parallel </i>
  <i name="platform" type="string">IFC91_ompi </i>
  <i name="date" type="string">2019 10 10 </i>
  <i name="time" type="string">11:16:05 </i>
 </generator>
 <incar>
  <i type="string" name="SYSTEM"> Si beta-tin</i>
  <i type="string" name="PREC">accurate</i>
  <i type="int" name="IBRION">     2</i>
  <i name="EDIFF">      0.00001000</i>
  <i name="EDIFFG">     -0.01000000</i>
  <i type="int" name="NSW">   100</i>
  <i type="int" name="ISIF">     4</i>
  <i name="ENMAX">    450.00000000</i>
  <i type="int" name="ISMEAR">     0</i>
  <i name="SIGMA">      0.10000000</i>
  <v type="int" name="KPOINT_BSE">    -1     0     0     0</v>
 </incar>
 <kpoints>
  <generation param="Monkhorst-Pack">
   <v type="int" name="divisions">       6        6        6 </v>
   <v name="usershift">      0.00000000       0.00000000       0.00000000 </v>
   <v name="genvec1">      0.16666667      -0.00000000       0.00000000 </v>
   <v name="genvec2">      0.00000000       0.16666667       0.00000000 </v>
   <v name="genvec3">      0.00000000       0.00000000       0.16666667 </v>
   <v name="shift">      0.50000000       0.50000000       0.50000000 </v>
  </generation>
  <varray name="kpointlist" >
   <v>       0.08333333       0.08333333       0.08333333 </v>
   <v>       0.25000000       0.08333333       0.08333333 </v>
   <v>       0.41666667       0.08333333       0.08333333 </v>
   <v>      -0.41666667       0.08333333       0.08333333 </v>
   <v>      -0.25000000       0.08333333       0.08333333 </v>
   <v>      -0.08333333       0.08333333       0.08333333 </v>
   <v>       0.25000000       0.25000000       0.08333333 </v>
   <v>       0.41666667       0.25000000       0.08333333 </v>
   <v>      -0.41666667       0.25000000       0.08333333 </v>
   <v>      -0.25000000       0.25000000       0.08333333 </v>
   <v>       0.41666667       0.41666667       0.08333333 </v>
   <v>      -0.41666667       0.41666667       0.08333333 </v>
   <v>       0.08333333       0.08333333       0.25000000 </v>
   <v>       0.25000000       0.08333333       0.25000000 </v>
   <v>       0.41666667       0.08333333       0.25000000 </v>
   <v>      -0.41666667       0.08333333       0.25000000 </v>
   <v>      -0.25000000       0.08333333       0.25000000 </v>
   <v>      -0.08333333       0.08333333       0.25000000 </v>
   <v>       0.25000000       0.25000000       0.25000000 </v>
   <v>       0.41666667       0.25000000       0.25000000 </v>
   <v>      -0.41666667       0.25000000       0.25000000 </v>
   <v>      -0.25000000       0.25000000       0.25000000 </v>
   <v>       0.41666667       0.41666667       0.25000000 </v>
   <v>      -0.41666667       0.41666667       0.25000000 </v>
   <v>       0.08333333       0.08333333       0.41666667 </v>
   <v>       0.25000000       0.08333333       0.41666667 </v>
   <v>       0.41666667       0.08333333       0.41666667 </v>
   <v>      -0.41666667       0.08333333       0.41666667 </v>
   <v>      -0.25000000       0.08333333       0.41666667 </v>
   <v>      -0.08333333       0.08333333       0.41666667 </v>
   <v>       0.25000000       0.25000000       0.41666667 </v>
   <v>       0.41666667       0.25000000       0.41666667 </v>
   <v>      -0.41666667       0.25000000       0.41666667 </v>
   <v>      -0.25000000       0.25000000       0.41666667 </v>
   <v>       0.41666667       0.41666667       0.41666667 </v>
   <v>      -0.41666667       0.41666667       0.41666667 </v>
  </varray>
  <varray name="weights" >
   <v>       0.01851852 </v>
   <v>       0.03703704 </v>
   <v>       0.03703704 </v>
   <v>       0.03703704 </v>
   <v>       0.03703704 </v>
   <v>       0.01851852 </v>
   <v>       0.01851852 </v>
   <v>       0.03703704 </v>
   <v>       0.03703704 </v>
   <v>       0.01851852 </v>
   <v>       0.01851852 </v>
   <v>       0.01851852 </v>
   <v>       0.01851852 </v>
   <v>       0.03703704 </v>
   <v>       0.03703704 </v>
   <v>       0.03703704 </v>
   <v>       0.03703704 </v>
   <v>       0.01851852 </v>
   <v>       0.01851852 </v>
   <v>       0.03703704 </v>
   <v>       0.03703704 </v>
   <v>       0.01851852 </v>
   <v>       0.01851852 </v>
   <v>       0.01851852 </v>
   <v>       0.01851852 </v>
   <v>       0.03703704 </v>
   <v>       0.03703704 </v>
   <v>       0.03703704 </v>
   <v>       0.03703704 </v>
   <v>       0.01851852 </v>
   <v>       0.01851852 </v>
   <v>       0.03703704 </v>
   <v>       0.03703704 </v>
   <v>       0.01851852 </v>
   <v>       0.01851852 </v>
   <v>       0.01851852 </v>
  </varray>
 </kpoints>
 <parameters>
  <separator name="general" >
   <i type="string" name="SYSTEM">Si beta-tin</i>
   <i type="logical" name="LCOMPAT"> F  </i>
  </separator>
  <separator name="electronic" >
   <i type="string" name="PREC">accura</i>
   <i name="ENMAX">    450.00000000</i>
   <i name="ENAUG">    322.06900000</i>
   <i name="EDIFF">      0.00001000</i>
   <i type="int" name="IALGO">    38</i>
   <i type="int" name="IWAVPR">    11</i>
   <i type="int" name="NBANDS">     8</i>
   <i name="NELECT">      8.00000000</i>
   <i type="int" name="TURBO">     0</i>
   <i type="int" name="IRESTART">     0</i>
   <i type="int" name="NREBOOT">     0</i>
   <i type="int" name="NMIN">     0</i>
   <i name="EREF">      0.00000000</i>
   <separator name="electronic smearing" >
    <i type="int" name="ISMEAR">     0</i>
    <i name="SIGMA">      0.10000000</i>
    <i name="KSPACING">      0.50000000</i>
    <i type="logical" name="KGAMMA"> T  </i>
   </separator>
   <separator name="electronic projectors" >
    <i type="logical" name="LREAL"> F  </i>
    <v name="ROPT">      0.00000000</v>
    <i type="int" name="LMAXPAW">  -100</i>
    <i type="int" name="LMAXMIX">     2</i>
    <i type="logical" name="NLSPLINE"> F  </i>
   </separator>
   <separator name="electronic startup" >
    <i type="int" name="ISTART">     0</i>
    <i type="int" name="ICHARG">     2</i>
    <i type="int" name="INIWAV">     1</i>
   </separator>
   <separator name="electronic spin" >
    <i type="int" name="ISPIN">     1</i>
    <i type="logical" name="LNONCOLLINEAR"> F  </i>
    <v name="MAGMOM">      1.00000000      1.00000000</v>
    <i name="NUPDOWN">     -1.00000000</i>
    <i type="logical" name="LSORBIT"> F  </i>
    <v name="SAXIS">      0.00000000      0.00000000      1.00000000</v>
    <i type="logical" name="LSPIRAL"> F  </i>
    <v name="QSPIRAL">      0.00000000      0.00000000      0.00000000</v>
    <i type="logical" name="LZEROZ"> F  </i>
   </separator>
   <separator name="electronic exchange-correlation" >
    <i type="logical" name="LASPH"> F  </i>
    <i type="logical" name="LMETAGGA"> F  </i>
   </separator>
   <separator name="electronic convergence" >
    <i type="int" name="NELM">    60</i>
    <i type="int" name="NELMDL">    -5</i>
    <i type="int" name="NELMIN">     2</i>
    <i name="ENINI">    450.00000000</i>
    <separator name="electronic convergence detail" >
     <i type="logical" name="LDIAG"> T  </i>
     <i type="logical" name="LSUBROT"> F  </i>
     <i name="WEIMIN">      0.00100000</i>
     <i name="EBREAK">      0.00000031</i>
     <i name="DEPER">      0.30000000</i>
     <i type="int" name="NRMM">     4</i>
     <i name="TIME">      0.40000000</i>
    </separator>
   </separator>
   <separator name="electronic mixer" >
    <i name="AMIX">      0.40000000</i>
    <i name="BMIX">      1.00000000</i>
    <i name="AMIN">      0.10000000</i>
    <i name="AMIX_MAG">      1.60000000</i>
    <i name="BMIX_MAG">      1.00000000</i>
    <separator name="electronic mixer details" >
     <i type="int" name="IMIX">     4</i>
     <i type="logical" name="MIXFIRST"> F  </i>
     <i type="int" name="MAXMIX">   -45</i>
     <i name="WC">    100.00000000</i>
     <i type="int" name="INIMIX">     1</i>
     <i type="int" name="MIXPRE">     1</i>
     <i type="int" name="MREMOVE">     5</i>
    </separator>
   </separator>
   <separator name="electronic dipolcorrection" >
    <i type="logical" name="LDIPOL"> F  </i>
    <i type="logical" name="LMONO"> F  </i>
    <i type="int" name="IDIPOL">     0</i>
    <i name="EPSILON">      1.00000000</i>
    <v name="DIPOL">   -100.00000000   -100.00000000   -100.00000000</v>
    <i name="EFIELD">      0.00000000</i>
   </separator>
  </separator>
  <separator name="grids" >
   <i type="int" name="NGX">    20</i>
   <i type="int" name="NGY">    20</i>
   <i type="int" name="NGZ">    32</i>
   <i type="int" name="NGXF">    40</i>
   <i type="int" name="NGYF">    40</i>
   <i type="int" name="NGZF">    64</i>
   <i type="logical" name="ADDGRID"> F  </i>
  </separator>
  <separator name="ionic" >
   <i type="int" name="NSW">   100</i>
   <i type="int" name="IBRION">     2</i>
   <i type="int" name="ISIF">     4</i>
   <i name="PSTRESS">      0.00000000</i>
   <i name="EDIFFG">     -0.01000000</i>
   <i type="int" name="NFREE">     1</i>
   <i name="POTIM">      0.50000000</i>
   <i name="SMASS">     -3.00000000</i>
   <i name="SCALEE">      1.00000000</i>
  </separator>
  <separator name="ionic md" >
   <i name="TEBEG">      0.00010000</i>
   <i name="TEEND">      0.00010000</i>
   <i type="int" name="NBLOCK">     1</i>
   <i type="int" name="KBLOCK">   100</i>
   <i type="int" name="NPACO">   256</i>
   <i name="APACO">     16.00000000</i>
  </separator>
  <separator name="symmetry" >
   <i type="int" name="ISYM">     2</i>
   <i name="SYMPREC">      0.00001000</i>
  </separator>
  <separator name="dos" >
   <i type="logical" name="LORBIT"> F  </i>
   <v name="RWIGS">     -1.00000000</v>
   <i type="int" name="NEDOS">   301</i>
   <i name="EMIN">     10.00000000</i>
   <i name="EMAX">    -10.00000000</i>
   <i name="EFERMI">      0.00000000</i>
  </separator>
  <separator name="writing" >
   <i type="int" name="NWRITE">     2</i>
   <i type="logical" name="LWAVE"> T  </i>
   <i type="logical" name="LCHARG"> T  </i>
   <i type="logical" name="LPARD"> F  </i>
   <i type="logical" name="LVTOT"> F  </i>
   <i type="logical" name="LVHAR"> F  </i>
   <i type="logical" name="LELF"> F  </i>
   <i type="logical" name="LOPTICS"> F  </i>
   <v name="STM">      0.00000000      0.00000000      0.00000000      0.00000000      0.00000000      0.00000000      0.00000000</v>
  </separator>
  <separator name="performance" >
   <i type="int" name="NPAR">     4</i>
   <i type="int" name="NSIM">     4</i>
   <i type="int" name="NBLK">    -1</i>
   <i type="logical" name="LPLANE"> T  </i>
   <i type="logical" name="LSCALAPACK"> F  </i>
   <i type="logical" name="LSCAAWARE"> F  </i>
   <i type="logical" name="LSCALU"> F  </i>
   <i type="logical" name="LASYNC"> F  </i>
   <i type="logical" name="LORBITALREAL"> F  </i>
  </separator>
  <separator name="miscellaneous" >
   <i type="int" name="IDIOT">     3</i>
   <i type="logical" name="LMUSIC"> F  </i>
   <v name="POMASS">     28.08500000</v>
   <v name="DARWINR">      0.00000000</v>
   <v name="DARWINV">      1.00000000</v>
   <i type="logical" name="LCORR"> T  </i>
  </separator>
  <i type="logical" name="GGA_COMPAT"> T  </i>
  <i type="logical" name="LBERRY"> F  </i>
  <i type="int" name="ICORELEVEL">     0</i>
  <i type="logical" name="LDAU"> F  </i>
  <i type="int" name="I_CONSTRAINED_M">     0</i>
  <separator name="electronic exchange-correlation" >
   <i type="string" name="GGA">--</i>
   <i type="int" name="VOSKOWN">     0</i>
   <i type="logical" name="LHFCALC"> F  </i>
   <i type="string" name="PRECFOCK"></i>
   <i type="logical" name="LSYMGRAD"> F  </i>
   <i type="logical" name="LHFONE"> F  </i>
   <i type="logical" name="LRHFCALC"> F  </i>
   <i type="logical" name="LTHOMAS"> F  </i>
   <i type="logical" name="LMODELHF"> F  </i>
   <i name="ENCUT4O">     -1.00000000</i>
   <i type="int" name="EXXOEP">     0</i>
   <i type="int" name="FOURORBIT">     0</i>
   <i name="AEXX">      0.00000000</i>
   <i name="HFALPHA">      0.00000000</i>
   <i name="MCALPHA">      0.00000000</i>
   <i name="ALDAX">      1.00000000</i>
   <i name="AGGAX">      1.00000000</i>
   <i name="ALDAC">      1.00000000</i>
   <i name="AGGAC">      1.00000000</i>
   <i type="int" name="NKREDX">     1</i>
   <i type="int" name="NKREDY">     1</i>
   <i type="int" name="NKREDZ">     1</i>
   <i type="logical" name="SHIFTRED"> F  </i>
   <i type="logical" name="ODDONLY"> F  </i>
   <i type="logical" name="EVENONLY"> F  </i>
   <i type="int" name="LMAXFOCK">     0</i>
   <i type="int" name="NMAXFOCKAE">     0</i>
   <i type="logical" name="LFOCKAEDFT"> F  </i>
   <i name="HFSCREEN">      0.00000000</i>
   <i name="HFSCREENC">      0.00000000</i>
   <i type="int" name="NBANDSGWLOW">     0</i>
  </separator>
  <separator name="vdW DFT" >
   <i type="logical" name="LUSE_VDW"> F  </i>
   <i name="Zab_VDW">     -0.84910000</i>
   <i name="PARAM1">      0.12340000</i>
   <i name="PARAM2">      1.00000000</i>
   <i name="PARAM3">      0.00000000</i>
  </separator>
  <separator name="model GW" >
   <i type="int" name="MODEL_GW">     0</i>
   <i name="MODEL_EPS0">      9.31342680</i>
   <i name="MODEL_ALPHA">      1.00000000</i>
  </separator>
  <separator name="linear response parameters" >
   <i type="logical" name="LEPSILON"> F  </i>
   <i type="logical" name="LRPA"> F  </i>
   <i type="logical" name="LNABLA"> F  </i>
   <i type="logical" name="LVEL"> F  </i>
   <i type="int" name="KINTER">     0</i>
   <i name="CSHIFT">      0.10000000</i>
   <i name="OMEGAMAX">     -1.00000000</i>
   <i name="DEG_THRESHOLD">      0.00200000</i>
  </separator>
  <separator name="orbital magnetization" >
   <i type="logical" name="NUCIND"> F  </i>
   <v name="MAGPOS">      0.00000000      0.00000000      0.00000000</v>
   <i type="logical" name="LNICSALL"> T  </i>
   <i type="logical" name="ORBITALMAG"> F  </i>
   <i type="logical" name="LMAGBLOCH"> F  </i>
   <i type="logical" name="LCHIMAG"> F  </i>
   <i type="logical" name="LGAUGE"> T  </i>
   <i type="int" name="MAGATOM">     0</i>
   <v name="MAGDIPOL">      0.00000000      0.00000000      0.00000000</v>
   <v name="AVECCONST">      0.00000000      0.00000000      0.00000000</v>
  </separator>
  <separator name="response functions" >
   <i type="logical" name="LADDER"> F  </i>
   <i type="logical" name="LFXC"> F  </i>
   <i type="logical" name="LHARTREE"> T  </i>
   <i type="int" name="IBSE">     0</i>
   <v type="int" name="KPOINT">    -1     0     0     0</v>
   <i type="logical" name="LTCTE"> F  </i>
   <i type="logical" name="LTETE"> F  </i>
   <i type="logical" name="LTRIPLET"> F  </i>
   <i type="logical" name="LFXCEPS"> F  </i>
   <i type="logical" name="LFXHEG"> F  </i>
   <i type="int" name="NATURALO">     0</i>
   <i type="logical" name="L2ORDER"> F  </i>
   <i type="logical" name="LUSEW"> F  </i>
   <i name="ENCUTGW">     -2.00000000</i>
   <i name="ENCUTGWSOFT">     -2.00000000</i>
   <i name="ENCUTLF">     -1.00000000</i>
   <i type="int" name="LMAXMP2">    -1</i>
   <i name="SCISSOR">      0.00000000</i>
   <i type="int" name="NOMEGA">     0</i>
   <i type="int" name="NOMEGAR">     0</i>
   <i type="int" name="NBANDSGW">    -1</i>
   <i type="int" name="NBANDSO">    -1</i>
   <i type="int" name="NBANDSV">    -1</i>
   <i type="int" name="NELM">     1</i>
   <i type="int" name="NELMHF">     1</i>
   <i type="int" name="DIM">     3</i>
   <i type="int" name="ANTIRES">     0</i>
   <i name="OMEGAMAX">    -30.00000000</i>
   <i name="OMEGAMIN">    -30.00000000</i>
   <i name="OMEGATL">   -200.00000000</i>
   <i type="int" name="OMEGAGRID">     0</i>
   <i name="CSHIFT">     -0.10000000</i>
   <i type="logical" name="SELFENERGY"> F  </i>
   <i type="logical" name="LSPECTRAL"> F  </i>
   <i type="logical" name="LSPECTRALGW"> F  </i>
   <i type="logical" name="LSINGLES"> F  </i>
   <i type="logical" name="LFERMIGW"> F  </i>
   <i type="logical" name="ODDONLYGW"> F  </i>
   <i type="logical" name="EVENONLYGW"> F  </i>
   <i type="int" name="NKREDLFX">     1</i>
   <i type="int" name="NKREDLFY">     1</i>
   <i type="int" name="NKREDLFZ">     1</i>
   <i type="int" name="MAXMEM">  1800</i>
   <i type="int" name="TELESCOPE">     0</i>
   <i type="int" name="TAUPAR">     1</i>
   <i type="int" name="OMEGAPAR">    -1</i>
   <i name="LAMBDA">      1.00000000</i>
  </separator>
  <separator name="External order field" >
   <i name="OFIELD_KAPPA">      0.00000000</i>
   <v name="OFIELD_K">      0.00000000      0.00000000      0.00000000</v>
   <i name="OFIELD_Q6_NEAR">      0.00000000</i>
   <i name="OFIELD_Q6_FAR">      0.00000000</i>
   <i name="OFIELD_A">      0.00000000</i>
  </separator>
 </parameters>
 <atominfo>
  <atoms>       2 </atoms>
  <types>       1 </types>
  <array name="atoms" >
   <dimension dim="1">ion</dimension>
   <field type="string">element</field>
   <field type="int">atomtype</field>
   <set>
    <rc><c> S</c><c>   1</c></rc>
    <rc><c> S</c><c>   1</c></rc>
   </set>
  </array>
  <array name="atomtypes" >
   <dimension dim="1">type</dimension>
   <field type="int">atomspertype</field>
   <field type="string">element</field>
   <field>mass</field>
   <field>valence</field>
   <field type="string">pseudopotential</field>
   <set>
    <rc><c>   2</c><c> S</c><c>     28.08500000</c><c>      4.00000000</c><c>  PAW_PBE Si 05Jan2001                  </c></rc>
   </set>
  </array>
 </atominfo>
 <structure name="initialpos" >
  <crystal>
   <varray name="basis" >
    <v>       2.80000000       0.00000000       0.00000000 </v>
    <v>      -1.40000000       2.42487113       0.00000000 </v>
    <v>       0.00000000       0.00000000       4.57237200 </v>
   </varray>
   <i name="volume">     31.04475601 </i>
   <varray name="rec_basis" >
    <v>       0.35714286       0.20619652       0.00000000 </v>
    <v>       0.00000000       0.41239305       0.00000000 </v>
    <v>       0.00000000       0.00000000       0.21870486 </v>
   </varray>
  </crystal>
  <varray name="positions" >
   <v>       0.00000000       0.00000000       0.00000000 </v>
   <v>       0.33333333       0.66666667       0.50000000 </v>
  </varray>
 </structure>
 <calculation>
  <scstep>
   <time name="dav">    1.36    0.86</time>
   <time name="total">    1.43    0.90</time>
   <energy>
    <i name="alphaZ">      4.33736774 </i>
    <i name="ewald">   -266.75488720 </i>
    <i name="hartreedc">     -1.53857074 </i>
    <i name="XCdc">    -17.97658732 </i>
    <i name="pawpsdc">    176.24759923 </i>
    <i name="pawaedc">   -141.06103558 </i>
    <i name="eentropy">     -0.00296533 </i>
    <i name="bandstr">     43.55809041 </i>
    <i name="atom">    206.13192747 </i>
    <i name="e_fr_energy">      2.94093868 </i>
    <i name="e_wo_entrp">      2.94390401 </i>
    <i name="e_0_energy">      2.94242134 </i>
   </energy>
  </scstep>
  <scstep>
   <time name="dav">    2.18    1.38</time>
   <time name="total">    2.19    1.38</time>
   <energy>
    <i name="e_fr_energy">     -9.64447042 </i>
    <i name="e_wo_entrp">     -9.63951236 </i>
    <i name="e_0_energy">     -9.64199139 </i>
   </energy>
  </scstep>
  <scstep>
   <time name="dav">    1.91    1.20</time>
   <time name="total">    1.91    1.20</time>
   <energy>
    <i name="e_fr_energy">     -9.83794012 </i>
    <i name="e_wo_entrp">     -9.83489155 </i>
    <i name="e_0_energy">     -9.83641584 </i>
   </energy>
  </scstep>
  <scstep>
   <time name="dav">    2.16    1.38</time>
   <time name="total">    2.16    1.38</time>
   <energy>
    <i name="e_fr_energy">     -9.83852295 </i>
    <i name="e_wo_entrp">     -9.83547129 </i>
    <i name="e_0_energy">     -9.83699712 </i>
   </energy>
  </scstep>
  <scstep>
   <time name="dav">    1.66    1.04</time>
   <time name="total">    1.71    1.08</time>
   <energy>
    <i name="e_fr_energy">     -9.83852374 </i>
    <i name="e_wo_entrp">     -9.83547208 </i>
    <i name="e_0_energy">     -9.83699791 </i>
   </energy>
  </scstep>
  <scstep>
   <time name="dav">    1.98    1.25</time>
   <time name="total">    2.07    1.30</time>
   <energy>
    <i name="e_fr_energy">     -9.81491497 </i>
    <i name="e_wo_entrp">     -9.81173156 </i>
    <i name="e_0_energy">     -9.81332327 </i>
   </energy>
  </scstep>
  <scstep>
   <time name="dav">    1.64    1.01</time>
   <time name="total">    1.73    1.07</time>
   <energy>
    <i name="e_fr_energy">     -9.80192812 </i>
    <i name="e_wo_entrp">     -9.79855941 </i>
    <i name="e_0_energy">     -9.80024377 </i>
   </energy>
  </scstep>
  <scstep>
   <time name="dav">    2.22    1.41</time>
   <time name="total">    2.32    1.46</time>
   <energy>
    <i name="e_fr_energy">     -9.80184274 </i>
    <i name="e_wo_entrp">     -9.79846913 </i>
    <i name="e_0_energy">     -9.80015594 </i>
   </energy>
  </scstep>
  <scstep>
   <time name="dav">    1.12    0.70</time>
   <time name="total">    1.18    0.74</time>
   <energy>
    <i name="alphaZ">      4.33736774 </i>
    <i name="ewald">   -266.75488720 </i>
    <i name="hartreedc">     -1.12091626 </i>
    <i name="XCdc">    -17.90641173 </i>
    <i name="pawpsdc">    511.32940159 </i>
    <i name="pawaedc">   -476.13710434 </i>
    <i name="eentropy">     -0.00337490 </i>
    <i name="bandstr">     30.32215415 </i>
    <i name="atom">    206.13192747 </i>
    <i name="e_fr_energy">     -9.80184349 </i>
    <i name="e_wo_entrp">     -9.79846859 </i>
    <i name="e_0_energy">     -9.80015604 </i>
   </energy>
  </scstep>
  <structure>
   <crystal>
    <varray name="basis" >
     <v>       2.80000000       0.00000000       0.00000000 </v>
     <v>      -1.40000000       2.42487113       0.00000000 </v>
     <v>       0.00000000       0.00000000       4.57237200 </v>
    </varray>
    <i name="volume">     31.04475601 </i>
    <varray name="rec_basis" >
     <v>       0.35714286       0.20619652       0.00000000 </v>
     <v>       0.00000000       0.41239305       0.00000000 </v>
     <v>       0.00000000       0.00000000       0.21870486 </v>
    </varray>
   </crystal>
   <varray name="positions" >
    <v>       0.00000000       0.00000000       0.00000000 </v>
    <v>       0.33333333       0.66666667       0.50000000 </v>
   </varray>
  </structure>
  <varray name="forces" >
   <v>      -0.00000000       0.00000000       0.00000000 </v>
   <v>       0.00000000       0.00000000       0.00000000 </v>
  </varray>
  <varray name="stress" >
   <v>     -49.52918711       0.00000000       0.00000000 </v>
   <v>       0.00000000     -49.52918711      -0.00000000 </v>
   <v>       0.00000000       0.00000000     -83.41703024 </v>
  </varray>
  <energy>
   <i name="e_fr_energy">     -9.80184349 </i>
   <i name="e_wo_entrp">     -9.80015604 </i>
   <i name="e_0_energy">     -0.00337490 </i>
  </energy>
  <time name="totalsc">   17.43   11.06</time>
 </calculation>
 <calculation>
  <scstep>
   <time name="dav">    1.77    1.07</time>
   <time name="total">    1.87    1.12</time>
   <energy>
    <i name="alphaZ">      4.33736774 </i>
    <i name="ewald">   -266.74369480 </i>
    <i name="hartreedc">     -1.12107131 </i>
    <i name="XCdc">    -17.90677409 </i>
    <i name="pawpsdc">    511.88116233 </i>
    <i name="pawaedc">   -476.68808676 </i>
    <i name="eentropy">     -0.00328088 </i>
    <i name="bandstr">     30.30025247 </i>
    <i name="atom">    206.13192747 </i>
    <i name="e_fr_energy">     -9.81219783 </i>
    <i name="e_wo_entrp">     -9.80891695 </i>
    <i name="e_0_energy">     -9.81055739 </i>
   </energy>
  </scstep>
  <scstep>
   <time name="dav">    1.81    1.10</time>
   <time name="total">    1.91    1.15</time>
   <energy>
    <i name="e_fr_energy">     -9.81116363 </i>
    <i name="e_wo_entrp">     -9.80786004 </i>
    <i name="e_0_energy">     -9.80951183 </i>
   </energy>
  </scstep>
  <scstep>
   <time name="dav">    1.82    1.14</time>
   <time name="total">    1.90    1.19</time>
   <energy>
    <i name="e_fr_energy">     -9.81060065 </i>
    <i name="e_wo_entrp">     -9.80726031 </i>
    <i name="e_0_energy">     -9.80893048 </i>
   </energy>
  </scstep>
  <scstep>
   <time name="dav">    1.70    1.06</time>
   <time name="total">    1.75    1.10</time>
   <energy>
    <i name="alphaZ">      4.33736774 </i>
    <i name="ewald">   -266.74369480 </i>
    <i name="hartreedc">     -1.12783071 </i>
    <i name="XCdc">    -17.90628572 </i>
    <i name="pawpsdc">    511.74425703 </i>
    <i name="pawaedc">   -476.55178746 </i>
    <i name="eentropy">     -0.00333923 </i>
    <i name="bandstr">     30.30878038 </i>
    <i name="atom">    206.13192747 </i>
    <i name="e_fr_energy">     -9.81060531 </i>
    <i name="e_wo_entrp">     -9.80726608 </i>
    <i name="e_0_energy">     -9.80893569 </i>
   </energy>
  </scstep>
  <structure>
   <crystal>
    <varray name="basis" >
     <v>       2.81486164       0.00000000       0.00000000 </v>
     <v>      -1.40743082       2.43774169      -0.00000000 </v>
     <v>       0.00000000       0.00000000       4.52421791 </v>
    </varray>
    <i name="volume">     31.04475601 </i>
    <varray name="rec_basis" >
     <v>       0.35525725       0.20510787       0.00000000 </v>
     <v>       0.00000000       0.41021574       0.00000000 </v>
     <v>       0.00000000       0.00000000       0.22103268 </v>
    </varray>
   </crystal>
   <varray name="positions" >
    <v>      -0.00000000       0.00000000       0.00000000 </v>
    <v>       0.33333333       0.66666667       0.50000000 </v>
   </varray>
  </structure>
  <varray name="forces" >
   <v>       0.00000000      -0.00000000      -0.00000000 </v>
   <v>      -0.00000000       0.00000000       0.00000000 </v>
  </varray>
  <varray name="stress" >
   <v>     -44.87372727       0.00000000       0.00000000 </v>
   <v>       0.00000000     -44.87372727       0.00000000 </v>
   <v>      -0.00000000      -0.00000000     -90.30434083 </v>
  </varray>
  <energy>
   <i name="e_fr_energy">     -9.81060531 </i>
   <i name="e_wo_entrp">     -9.80893569 </i>
   <i name="e_0_energy">     -0.00333923 </i>
  </energy>
  <time name="totalsc">    8.14    5.02</time>
 </calculation>
 <calculation>
  <scstep>
   <time name="dav">    2.27    1.42</time>
   <time name="total">    2.36    1.48</time>
   <energy>
    <i name="alphaZ">      4.33736774 </i>
    <i name="ewald">   -266.69956705 </i>
    <i name="hartreedc">     -1.12990880 </i>
    <i name="XCdc">    -17.90656046 </i>
    <i name="pawpsdc">    511.90148922 </i>
    <i name="pawaedc">   -476.70896271 </i>
    <i name="eentropy">     -0.00353372 </i>
    <i name="bandstr">     30.25673023 </i>
    <i name="atom">    206.13192747 </i>
    <i name="e_fr_energy">     -9.82101808 </i>
    <i name="e_wo_entrp">     -9.81748435 </i>
    <i name="e_0_energy">     -9.81925122 </i>
   </energy>
  </scstep>
  <scstep>
   <time name="dav">    1.48    0.92</time>
   <time name="total">    1.57    0.98</time>
   <energy>
    <i name="e_fr_energy">     -9.81915415 </i>
    <i name="e_wo_entrp">     -9.81554330 </i>
    <i name="e_0_energy">     -9.81734872 </i>
   </energy>
  </scstep>
  <scstep>
   <time name="dav">    2.38    1.42</time>
   <time name="total">    2.48    1.48</time>
   <energy>
    <i name="e_fr_energy">     -9.81815187 </i>
    <i name="e_wo_entrp">     -9.81443942 </i>
    <i name="e_0_energy">     -9.81629565 </i>
   </energy>
  </scstep>
  <scstep>
   <time name="dav">    1.51    0.94</time>
   <time name="total">    1.56    0.97</time>
   <energy>
    <i name="alphaZ">      4.33736774 </i>
    <i name="ewald">   -266.69956705 </i>
    <i name="hartreedc">     -1.15365627 </i>
    <i name="XCdc">    -17.90430076 </i>
    <i name="pawpsdc">    512.94784743 </i>
    <i name="pawaedc">   -477.75673792 </i>
    <i name="eentropy">     -0.00370930 </i>
    <i name="bandstr">     30.28266861 </i>
    <i name="atom">    206.13192747 </i>
    <i name="e_fr_energy">     -9.81816005 </i>
    <i name="e_wo_entrp">     -9.81445075 </i>
    <i name="e_0_energy">     -9.81630540 </i>
   </energy>
  </scstep>
  <structure>
   <crystal>
    <varray name="basis" >
     <v>       2.83537960       0.00000000       0.00000000 </v>
     <v>      -1.41768980       2.45551076      -0.00000000 </v>
     <v>       0.00000000       0.00000000       4.45897666 </v>
    </varray>
    <i name="volume">     31.04475601 </i>
    <varray name="rec_basis" >
     <v>       0.35268646       0.20362362       0.00000000 </v>
     <v>       0.00000000       0.40724725       0.00000000 </v>
     <v>       0.00000000       0.00000000       0.22426670 </v>
    </varray>
   </crystal>
   <varray name="positions" >
    <v>      -0.00000000       0.00000000       0.00000000 </v>
    <v>       0.33333333       0.66666667       0.50000000 </v>
   </varray>
  </structure>
  <varray name="forces" >
   <v>      -0.00000000      -0.00000000       0.00000000 </v>
   <v>       0.00000000       0.00000000      -0.00000000 </v>
  </varray>
  <varray name="stress" >
   <v>     -56.72243092       0.00000000      -0.00000000 </v>
   <v>       0.00000000     -56.72243092       0.00000000 </v>
   <v>       0.00000000       0.00000000     -58.48591428 </v>
  </varray>
  <energy>
   <i name="e_fr_energy">     -9.81816005 </i>
   <i name="e_wo_entrp">     -9.81630540 </i>
   <i name="e_0_energy">     -0.00370930 </i>
  </energy>
  <time name="totalsc">    8.62    5.32</time>
 </calculation>
 <calculation>
  <scstep>
   <time name="dav">    2.26    1.46</time>
   <time name="total">    2.37    1.53</time>
   <energy>
    <i name="alphaZ">      4.33736774 </i>
    <i name="ewald">   -266.69710948 </i>
    <i name="hartreedc">     -1.15348858 </i>
    <i name="XCdc">    -17.90432252 </i>
    <i name="pawpsdc">    513.38618692 </i>
    <i name="pawaedc">   -478.19491399 </i>
    <i name="eentropy">     -0.00369382 </i>
    <i name="bandstr">     30.27987229 </i>
    <i name="atom">    206.13192747 </i>
    <i name="e_fr_energy">     -9.81817397 </i>
    <i name="e_wo_entrp">     -9.81448015 </i>
    <i name="e_0_energy">     -9.81632706 </i>
   </energy>
  </scstep>
  <scstep>
   <time name="dav">    0.86    0.57</time>
   <time name="total">    0.91    0.61</time>
   <energy>
    <i name="alphaZ">      4.33736774 </i>
    <i name="ewald">   -266.69710948 </i>
    <i name="hartreedc">     -1.15384434 </i>
    <i name="XCdc">    -17.90428605 </i>
    <i name="pawpsdc">    513.41567369 </i>
    <i name="pawaedc">   -478.22440603 </i>
    <i name="eentropy">     -0.00369591 </i>
    <i name="bandstr">     30.28020057 </i>
    <i name="atom">    206.13192747 </i>
    <i name="e_fr_energy">     -9.81817234 </i>
    <i name="e_wo_entrp">     -9.81447643 </i>
    <i name="e_0_energy">     -9.81632438 </i>
   </energy>
  </scstep>
  <structure>
   <crystal>
    <varray name="basis" >
     <v>       2.83621462       0.00000000       0.00000000 </v>
     <v>      -1.41810731       2.45623391      -0.00000000 </v>
     <v>       0.00000000       0.00000000       4.45635147 </v>
    </varray>
    <i name="volume">     31.04475601 </i>
    <varray name="rec_basis" >
     <v>       0.35258263       0.20356367       0.00000000 </v>
     <v>       0.00000000       0.40712735       0.00000000 </v>
     <v>       0.00000000       0.00000000       0.22439882 </v>
    </varray>
   </crystal>
   <varray name="positions" >
    <v>      -0.00000000       0.00000000       0.00000000 </v>
    <v>       0.33333333       0.66666667       0.50000000 </v>
   </varray>
  </structure>
  <varray name="forces" >
   <v>      -0.00000000       0.00000000       0.00000000 </v>
   <v>       0.00000000      -0.00000000      -0.00000000 </v>
  </varray>
  <varray name="stress" >
   <v>     -57.15784340       0.00000000       0.00000000 </v>
   <v>       0.00000000     -57.15784340       0.00000000 </v>
   <v>       0.00000000      -0.00000000     -57.20660516 </v>
  </varray>
  <energy>
   <i name="e_fr_energy">     -9.81817234 </i>
   <i name="e_wo_entrp">     -9.81632438 </i>
   <i name="e_0_energy">     -0.00369591 </i>
  </energy>
  <time name="totalsc">    3.81    2.50</time>
  <eigenvalues>
   <array>
    <dimension dim="1">band</dimension>
    <dimension dim="2">kpoint</dimension>
    <dimension dim="3">spin</dimension>
    <field>eigene</field>
    <field>occ</field>
    <set>
     <set comment="spin 1">
      <set comment="kpoint 1">
       <r>   -4.0088    1.0000 </r>
       <r>    1.9685    1.0000 </r>
       <r>    4.3781    1.0000 </r>
       <r>   12.7164    0.0000 </r>
       <r>   13.4364    0.0000 </r>
       <r>   17.5969    0.0000 </r>
       <r>   18.1517    0.0000 </r>
       <r>   18.3758    0.0000 </r>
      </set>
      <set comment="kpoint 2">
       <r>   -2.3564    1.0000 </r>
       <r>    3.5778    1.0000 </r>
       <r>    5.9430    1.0000 </r>
       <r>    7.3481    1.0000 </r>
       <r>   11.0728    0.0000 </r>
       <r>   12.9573    0.0000 </r>
       <r>   15.0205    0.0000 </r>
       <r>   16.4864    0.0000 </r>
      </set>
      <set comment="kpoint 3">
       <r>    0.5207    1.0000 </r>
       <r>    2.6623    1.0000 </r>
       <r>    6.3788    1.0000 </r>
       <r>    8.1547    1.0000 </r>
       <r>    8.9590    1.0000 </r>
       <r>   10.1600    0.0000 </r>
       <r>   10.8432    0.0000 </r>
       <r>   15.5964    0.0000 </r>
      </set>
      <set comment="kpoint 4">
       <r>   -1.0510    1.0000 </r>
       <r>    4.7504    1.0000 </r>
       <r>    4.9385    1.0000 </r>
       <r>    7.1669    1.0000 </r>
       <r>   10.4185    0.0000 </r>
       <r>   10.6385    0.0000 </r>
       <r>   12.8203    0.0000 </r>
       <r>   15.8903    0.0000 </r>
      </set>
      <set comment="kpoint 5">
       <r>   -3.3456    1.0000 </r>
       <r>    2.6151    1.0000 </r>
       <r>    5.0084    1.0000 </r>
       <r>   10.0732    0.0000 </r>
       <r>   12.0071    0.0000 </r>
       <r>   15.4660    0.0000 </r>
       <r>   16.9371    0.0000 </r>
       <r>   17.4440    0.0000 </r>
      </set>
      <set comment="kpoint 6">
       <r>   -4.3414    1.0000 </r>
       <r>    1.6439    1.0000 </r>
       <r>    4.0614    1.0000 </r>
       <r>   14.3687    0.0000 </r>
       <r>   15.3664    0.0000 </r>
       <r>   17.4538    0.0000 </r>
       <r>   18.7627    0.0000 </r>
       <r>   19.2118    0.0000 </r>
      </set>
      <set comment="kpoint 7">
       <r>   -0.0787    1.0000 </r>
       <r>    5.3234    1.0000 </r>
       <r>    5.8205    1.0000 </r>
       <r>    6.3197    1.0000 </r>
       <r>    8.0736    1.0000 </r>
       <r>   11.0367    0.0000 </r>
       <r>   11.8625    0.0000 </r>
       <r>   13.2335    0.0000 </r>
      </set>
      <set comment="kpoint 8">
       <r>    1.4839    1.0000 </r>
       <r>    3.5216    1.0000 </r>
       <r>    5.6633    1.0000 </r>
       <r>    7.3109    1.0000 </r>
       <r>    9.0698    0.9997 </r>
       <r>    9.7147    0.0000 </r>
       <r>   10.9475    0.0000 </r>
       <r>   12.0085    0.0000 </r>
      </set>
      <set comment="kpoint 9">
       <r>   -1.3741    1.0000 </r>
       <r>    4.5298    1.0000 </r>
       <r>    6.3470    1.0000 </r>
       <r>    6.8813    1.0000 </r>
       <r>    8.4389    1.0000 </r>
       <r>   12.0078    0.0000 </r>
       <r>   13.6315    0.0000 </r>
       <r>   14.5373    0.0000 </r>
      </set>
      <set comment="kpoint 10">
       <r>   -3.0152    1.0000 </r>
       <r>    2.9370    1.0000 </r>
       <r>    5.3216    1.0000 </r>
       <r>    8.5958    1.0000 </r>
       <r>   13.1648    0.0000 </r>
       <r>   14.0845    0.0000 </r>
       <r>   15.5386    0.0000 </r>
       <r>   16.4006    0.0000 </r>
      </set>
      <set comment="kpoint 11">
       <r>    1.4730    1.0000 </r>
       <r>    2.3428    1.0000 </r>
       <r>    7.3088    1.0000 </r>
       <r>    7.7745    1.0000 </r>
       <r>    8.0044    1.0000 </r>
       <r>    9.6326    0.0000 </r>
       <r>   10.4993    0.0000 </r>
       <r>   13.5023    0.0000 </r>
      </set>
      <set comment="kpoint 12">
       <r>   -0.4109    1.0000 </r>
       <r>    3.5814    1.0000 </r>
       <r>    5.4758    1.0000 </r>
       <r>    7.7211    1.0000 </r>
       <r>    9.4356    0.0387 </r>
       <r>   11.6908    0.0000 </r>
       <r>   12.0040    0.0000 </r>
       <r>   14.3932    0.0000 </r>
      </set>
      <set comment="kpoint 13">
       <r>   -3.6034    1.0000 </r>
       <r>    0.0068    1.0000 </r>
       <r>    7.0565    1.0000 </r>
       <r>   13.0777    0.0000 </r>
       <r>   13.7587    0.0000 </r>
       <r>   16.1487    0.0000 </r>
       <r>   16.7873    0.0000 </r>
       <r>   16.9725    0.0000 </r>
      </set>
      <set comment="kpoint 14">
       <r>   -1.9539    1.0000 </r>
       <r>    1.6293    1.0000 </r>
       <r>    7.7171    1.0000 </r>
       <r>    8.5667    1.0000 </r>
       <r>   11.1615    0.0000 </r>
       <r>   11.4695    0.0000 </r>
       <r>   14.7096    0.0000 </r>
       <r>   16.6928    0.0000 </r>
      </set>
      <set comment="kpoint 15">
       <r>    0.9182    1.0000 </r>
       <r>    3.0489    1.0000 </r>
       <r>    4.4651    1.0000 </r>
       <r>    6.5218    1.0000 </r>
       <r>   10.5096    0.0000 </r>
       <r>   11.3318    0.0000 </r>
       <r>   13.0315    0.0000 </r>
       <r>   14.2635    0.0000 </r>
      </set>
      <set comment="kpoint 16">
       <r>   -0.6510    1.0000 </r>
       <r>    2.9083    1.0000 </r>
       <r>    5.2317    1.0000 </r>
       <r>    8.5579    1.0000 </r>
       <r>    9.9671    0.0000 </r>
       <r>   10.8378    0.0000 </r>
       <r>   14.0125    0.0000 </r>
       <r>   15.4044    0.0000 </r>
      </set>
      <set comment="kpoint 17">
       <r>   -2.9414    1.0000 </r>
       <r>    0.6582    1.0000 </r>
       <r>    7.6698    1.0000 </r>
       <r>   10.4438    0.0000 </r>
       <r>   12.3560    0.0000 </r>
       <r>   13.7729    0.0000 </r>
       <r>   15.6317    0.0000 </r>
       <r>   16.9954    0.0000 </r>
      </set>
      <set comment="kpoint 18">
       <r>   -3.9354    1.0000 </r>
       <r>   -0.3200    1.0000 </r>
       <r>    6.7465    1.0000 </r>
       <r>   14.7032    0.0000 </r>
       <r>   15.7063    0.0000 </r>
       <r>   16.3801    0.0000 </r>
       <r>   17.4284    0.0000 </r>
       <r>   18.3231    0.0000 </r>
      </set>
      <set comment="kpoint 19">
       <r>    0.3195    1.0000 </r>
       <r>    3.8590    1.0000 </r>
       <r>    5.7473    1.0000 </r>
       <r>    6.6994    1.0000 </r>
       <r>    9.1805    0.9672 </r>
       <r>    9.7444    0.0000 </r>
       <r>   11.1863    0.0000 </r>
       <r>   15.5656    0.0000 </r>
      </set>
      <set comment="kpoint 20">
       <r>    1.8792    1.0000 </r>
       <r>    3.9075    1.0000 </r>
       <r>    5.4024    1.0000 </r>
       <r>    6.0534    1.0000 </r>
       <r>    7.3774    1.0000 </r>
       <r>    9.3719    0.1933 </r>
       <r>   12.3189    0.0000 </r>
       <r>   14.1925    0.0000 </r>
      </set>
      <set comment="kpoint 21">
       <r>   -0.9734    1.0000 </r>
       <r>    2.5926    1.0000 </r>
       <r>    6.7362    1.0000 </r>
       <r>    8.8072    1.0000 </r>
       <r>    9.3471    0.3035 </r>
       <r>   10.2999    0.0000 </r>
       <r>   12.2901    0.0000 </r>
       <r>   16.4399    0.0000 </r>
      </set>
      <set comment="kpoint 22">
       <r>   -2.6115    1.0000 </r>
       <r>    0.9827    1.0000 </r>
       <r>    7.9677    1.0000 </r>
       <r>    8.9746    1.0000 </r>
       <r>   12.3733    0.0000 </r>
       <r>   13.5186    0.0000 </r>
       <r>   15.6969    0.0000 </r>
       <r>   16.6009    0.0000 </r>
      </set>
      <set comment="kpoint 23">
       <r>    1.8697    1.0000 </r>
       <r>    2.7316    1.0000 </r>
       <r>    5.4058    1.0000 </r>
       <r>    6.2018    1.0000 </r>
       <r>    8.1430    1.0000 </r>
       <r>   11.2790    0.0000 </r>
       <r>   12.1992    0.0000 </r>
       <r>   13.4867    0.0000 </r>
      </set>
      <set comment="kpoint 24">
       <r>   -0.0120    1.0000 </r>
       <r>    3.5194    1.0000 </r>
       <r>    3.9983    1.0000 </r>
       <r>    7.4073    1.0000 </r>
       <r>   10.5026    0.0000 </r>
       <r>   12.3607    0.0000 </r>
       <r>   13.9966    0.0000 </r>
       <r>   14.8268    0.0000 </r>
      </set>
      <set comment="kpoint 25">
       <r>   -2.7950    1.0000 </r>
       <r>   -1.5888    1.0000 </r>
       <r>   10.0590    0.0000 </r>
       <r>   13.1980    0.0000 </r>
       <r>   13.7924    0.0000 </r>
       <r>   14.6124    0.0000 </r>
       <r>   15.0022    0.0000 </r>
       <r>   15.6788    0.0000 </r>
      </set>
      <set comment="kpoint 26">
       <r>   -1.1515    1.0000 </r>
       <r>    0.0458    1.0000 </r>
       <r>    8.4739    1.0000 </r>
       <r>    9.5549    0.0003 </r>
       <r>   11.5861    0.0000 </r>
       <r>   12.1460    0.0000 </r>
       <r>   13.4117    0.0000 </r>
       <r>   14.8882    0.0000 </r>
      </set>
      <set comment="kpoint 27">
       <r>    1.7099    1.0000 </r>
       <r>    2.8842    1.0000 </r>
       <r>    3.8475    1.0000 </r>
       <r>    5.0000    1.0000 </r>
       <r>   11.2427    0.0000 </r>
       <r>   12.2694    0.0000 </r>
       <r>   14.2303    0.0000 </r>
       <r>   15.7155    0.0000 </r>
      </set>
      <set comment="kpoint 28">
       <r>    0.1466    1.0000 </r>
       <r>    1.3363    1.0000 </r>
       <r>    5.9998    1.0000 </r>
       <r>    7.1401    1.0000 </r>
       <r>   11.5371    0.0000 </r>
       <r>   12.3224    0.0000 </r>
       <r>   13.2000    0.0000 </r>
       <r>   15.6753    0.0000 </r>
      </set>
      <set comment="kpoint 29">
       <r>   -2.1354    1.0000 </r>
       <r>   -0.9327    1.0000 </r>
       <r>   10.5870    0.0000 </r>
       <r>   11.1741    0.0000 </r>
       <r>   12.3543    0.0000 </r>
       <r>   12.9368    0.0000 </r>
       <r>   14.1736    0.0000 </r>
       <r>   14.3667    0.0000 </r>
      </set>
      <set comment="kpoint 30">
       <r>   -3.1258    1.0000 </r>
       <r>   -1.9179    1.0000 </r>
       <r>    9.7677    0.0000 </r>
       <r>   13.0359    0.0000 </r>
       <r>   15.4417    0.0000 </r>
       <r>   16.3736    0.0000 </r>
       <r>   16.4170    0.0000 </r>
       <r>   17.3200    0.0000 </r>
      </set>
      <set comment="kpoint 31">
       <r>    1.1133    1.0000 </r>
       <r>    2.2969    1.0000 </r>
       <r>    6.5149    1.0000 </r>
       <r>    7.4415    1.0000 </r>
       <r>    7.6781    1.0000 </r>
       <r>    8.5603    1.0000 </r>
       <r>   13.7945    0.0000 </r>
       <r>   16.4438    0.0000 </r>
      </set>
      <set comment="kpoint 32">
       <r>    2.6665    1.0000 </r>
       <r>    3.8320    1.0000 </r>
       <r>    4.7071    1.0000 </r>
       <r>    5.8536    1.0000 </r>
       <r>    6.8147    1.0000 </r>
       <r>    7.9393    1.0000 </r>
       <r>   15.0477    0.0000 </r>
       <r>   16.4421    0.0000 </r>
      </set>
      <set comment="kpoint 33">
       <r>   -0.1747    1.0000 </r>
       <r>    1.0170    1.0000 </r>
       <r>    7.4983    1.0000 </r>
       <r>    8.6212    1.0000 </r>
       <r>    9.5529    0.0003 </r>
       <r>   10.5727    0.0000 </r>
       <r>   12.7404    0.0000 </r>
       <r>   15.6735    0.0000 </r>
      </set>
      <set comment="kpoint 34">
       <r>   -1.8067    1.0000 </r>
       <r>   -0.6058    1.0000 </r>
       <r>    9.7019    0.0000 </r>
       <r>   10.5209    0.0000 </r>
       <r>   11.3422    0.0000 </r>
       <r>   14.1321    0.0000 </r>
       <r>   14.2224    0.0000 </r>
       <r>   15.2638    0.0000 </r>
      </set>
      <set comment="kpoint 35">
       <r>    2.6586    1.0000 </r>
       <r>    3.4836    1.0000 </r>
       <r>    3.8747    1.0000 </r>
       <r>    4.6798    1.0000 </r>
       <r>    8.8914    1.0000 </r>
       <r>    9.9897    0.0000 </r>
       <r>   14.9439    0.0000 </r>
       <r>   15.8587    0.0000 </r>
      </set>
      <set comment="kpoint 36">
       <r>    0.7832    1.0000 </r>
       <r>    1.9685    1.0000 </r>
       <r>    4.7563    1.0000 </r>
       <r>    5.9083    1.0000 </r>
       <r>   13.0714    0.0000 </r>
       <r>   13.2760    0.0000 </r>
       <r>   14.1273    0.0000 </r>
       <r>   14.9665    0.0000 </r>
      </set>
     </set>
    </set>
   </array>
  </eigenvalues>
  <separator name="orbital magnetization" >
   <v name="MAGDIPOLOUT">      0.00000000      0.00000000      0.00000000</v>
  </separator>
  <dos>
   <i name="efermi">      9.31071225 </i>
   <total>
    <array>
     <dimension dim="1">gridpoints</dimension>
     <dimension dim="2">spin</dimension>
     <field>energy</field>
     <field>total</field>
     <field>integrated</field>
     <set>
      <set comment="spin 1">
       <r>    -5.5191     0.0000     0.0000 </r>
       <r>    -5.4327     0.0000     0.0000 </r>
       <r>    -5.3463     0.0000     0.0000 </r>
       <r>    -5.2600     0.0000     0.0000 </r>
       <r>    -5.1736     0.0000     0.0000 </r>
       <r>    -5.0873     0.0000     0.0000 </r>
       <r>    -5.0009     0.0000     0.0000 </r>
       <r>    -4.9145     0.0000     0.0000 </r>
       <r>    -4.8282     0.0000     0.0000 </r>
       <r>    -4.7418     0.0000     0.0000 </r>
       <r>    -4.6554     0.0000     0.0000 </r>
       <r>    -4.5691     0.0003     0.0000 </r>
       <r>    -4.4827     0.0095     0.0008 </r>
       <r>    -4.3964     0.0839     0.0081 </r>
       <r>    -4.3100     0.1943     0.0249 </r>
       <r>    -4.2236     0.1208     0.0353 </r>
       <r>    -4.1373     0.0350     0.0383 </r>
       <r>    -4.0509     0.1252     0.0491 </r>
       <r>    -3.9645     0.3205     0.0768 </r>
       <r>    -3.8782     0.2934     0.1022 </r>
       <r>    -3.7918     0.0957     0.1104 </r>
       <r>    -3.7055     0.0396     0.1138 </r>
       <r>    -3.6191     0.1451     0.1264 </r>
       <r>    -3.5327     0.1874     0.1426 </r>
       <r>    -3.4464     0.1251     0.1534 </r>
       <r>    -3.3600     0.2992     0.1792 </r>
       <r>    -3.2737     0.3735     0.2115 </r>
       <r>    -3.1873     0.1997     0.2287 </r>
       <r>    -3.1009     0.2567     0.2509 </r>
       <r>    -3.0146     0.4175     0.2869 </r>
       <r>    -2.9282     0.5655     0.3358 </r>
       <r>    -2.8418     0.4385     0.3736 </r>
       <r>    -2.7555     0.2728     0.3972 </r>
       <r>    -2.6691     0.1912     0.4137 </r>
       <r>    -2.5828     0.2092     0.4318 </r>
       <r>    -2.4964     0.1449     0.4443 </r>
       <r>    -2.4100     0.1929     0.4610 </r>
       <r>    -2.3237     0.3937     0.4950 </r>
       <r>    -2.2373     0.2974     0.5206 </r>
       <r>    -2.1510     0.3305     0.5492 </r>
       <r>    -2.0646     0.4255     0.5859 </r>
       <r>    -1.9782     0.4671     0.6263 </r>
       <r>    -1.8919     0.6295     0.6806 </r>
       <r>    -1.8055     0.4456     0.7191 </r>
       <r>    -1.7191     0.2167     0.7378 </r>
       <r>    -1.6328     0.1452     0.7504 </r>
       <r>    -1.5464     0.2058     0.7682 </r>
       <r>    -1.4601     0.1928     0.7848 </r>
       <r>    -1.3737     0.3496     0.8150 </r>
       <r>    -1.2873     0.3563     0.8458 </r>
       <r>    -1.2010     0.2872     0.8706 </r>
       <r>    -1.1146     0.5649     0.9194 </r>
       <r>    -1.0282     0.8420     0.9921 </r>
       <r>    -0.9419     0.9988     1.0783 </r>
       <r>    -0.8555     0.6487     1.1344 </r>
       <r>    -0.7692     0.1942     1.1511 </r>
       <r>    -0.6828     0.3045     1.1774 </r>
       <r>    -0.5964     0.5687     1.2265 </r>
       <r>    -0.5101     0.3574     1.2574 </r>
       <r>    -0.4237     0.2332     1.2775 </r>
       <r>    -0.3374     0.3354     1.3065 </r>
       <r>    -0.2510     0.3587     1.3375 </r>
       <r>    -0.1646     0.4824     1.3791 </r>
       <r>    -0.0783     0.6271     1.4333 </r>
       <r>     0.0081     0.8340     1.5053 </r>
       <r>     0.0945     0.9201     1.5848 </r>
       <r>     0.1808     0.6607     1.6419 </r>
       <r>     0.2672     0.3474     1.6719 </r>
       <r>     0.3535     0.2400     1.6926 </r>
       <r>     0.4399     0.2192     1.7115 </r>
       <r>     0.5263     0.3912     1.7453 </r>
       <r>     0.6126     0.5190     1.7901 </r>
       <r>     0.6990     0.5187     1.8349 </r>
       <r>     0.7853     0.4122     1.8705 </r>
       <r>     0.8717     0.4280     1.9075 </r>
       <r>     0.9581     0.7296     1.9705 </r>
       <r>     1.0444     0.8570     2.0445 </r>
       <r>     1.1308     0.5455     2.0916 </r>
       <r>     1.2172     0.2329     2.1117 </r>
       <r>     1.3035     0.2753     2.1355 </r>
       <r>     1.3899     0.5136     2.1798 </r>
       <r>     1.4762     0.6728     2.2379 </r>
       <r>     1.5626     0.7349     2.3014 </r>
       <r>     1.6490     0.8466     2.3745 </r>
       <r>     1.7353     0.8611     2.4489 </r>
       <r>     1.8217     0.6243     2.5028 </r>
       <r>     1.9081     0.7865     2.5707 </r>
       <r>     1.9944     0.7435     2.6350 </r>
       <r>     2.0808     0.3171     2.6623 </r>
       <r>     2.1671     0.0650     2.6680 </r>
       <r>     2.2535     0.1450     2.6805 </r>
       <r>     2.3399     0.3600     2.7116 </r>
       <r>     2.4262     0.2845     2.7361 </r>
       <r>     2.5126     0.2589     2.7585 </r>
       <r>     2.5989     1.0077     2.8455 </r>
       <r>     2.6853     1.7303     2.9950 </r>
       <r>     2.7717     1.1465     3.0940 </r>
       <r>     2.8580     0.7454     3.1583 </r>
       <r>     2.9444     1.0293     3.2472 </r>
       <r>     3.0308     0.8182     3.3179 </r>
       <r>     3.1171     0.4599     3.3576 </r>
       <r>     3.2035     0.1353     3.3693 </r>
       <r>     3.2898     0.0142     3.3705 </r>
       <r>     3.3762     0.0548     3.3753 </r>
       <r>     3.4626     0.4355     3.4129 </r>
       <r>     3.5489     1.1340     3.5108 </r>
       <r>     3.6353     1.0312     3.5998 </r>
       <r>     3.7216     0.4182     3.6360 </r>
       <r>     3.8080     0.7332     3.6993 </r>
       <r>     3.8944     1.4874     3.8277 </r>
       <r>     3.9807     1.1474     3.9268 </r>
       <r>     4.0671     0.5621     3.9754 </r>
       <r>     4.1535     0.2378     3.9959 </r>
       <r>     4.2398     0.0562     4.0008 </r>
       <r>     4.3262     0.1133     4.0105 </r>
       <r>     4.4125     0.4102     4.0460 </r>
       <r>     4.4989     0.7517     4.1109 </r>
       <r>     4.5853     0.7225     4.1733 </r>
       <r>     4.6716     0.7392     4.2371 </r>
       <r>     4.7580     1.1137     4.3333 </r>
       <r>     4.8444     0.8059     4.4029 </r>
       <r>     4.9307     0.6919     4.4627 </r>
       <r>     5.0171     1.0857     4.5564 </r>
       <r>     5.1034     0.7315     4.6196 </r>
       <r>     5.1898     0.3734     4.6519 </r>
       <r>     5.2762     0.6403     4.7071 </r>
       <r>     5.3625     0.9305     4.7875 </r>
       <r>     5.4489     0.9581     4.8702 </r>
       <r>     5.5352     0.5482     4.9176 </r>
       <r>     5.6216     0.3426     4.9472 </r>
       <r>     5.7080     0.5512     4.9948 </r>
       <r>     5.7943     0.7181     5.0568 </r>
       <r>     5.8807     1.0157     5.1445 </r>
       <r>     5.9671     1.2427     5.2518 </r>
       <r>     6.0534     1.1263     5.3491 </r>
       <r>     6.1398     0.6425     5.4046 </r>
       <r>     6.2261     0.3884     5.4381 </r>
       <r>     6.3125     0.6647     5.4955 </r>
       <r>     6.3989     1.0202     5.5837 </r>
       <r>     6.4852     0.8547     5.6575 </r>
       <r>     6.5716     0.6905     5.7171 </r>
       <r>     6.6579     0.5331     5.7631 </r>
       <r>     6.7443     0.8923     5.8402 </r>
       <r>     6.8307     1.1308     5.9379 </r>
       <r>     6.9170     0.8246     6.0091 </r>
       <r>     7.0034     0.4130     6.0447 </r>
       <r>     7.0898     0.5250     6.0901 </r>
       <r>     7.1761     0.9103     6.1687 </r>
       <r>     7.2625     0.9823     6.2535 </r>
       <r>     7.3488     1.4124     6.3755 </r>
       <r>     7.4352     1.5464     6.5090 </r>
       <r>     7.5216     0.9993     6.5953 </r>
       <r>     7.6079     0.6522     6.6517 </r>
       <r>     7.6943     1.0675     6.7439 </r>
       <r>     7.7807     1.1669     6.8446 </r>
       <r>     7.8670     0.6210     6.8983 </r>
       <r>     7.9534     0.6880     6.9577 </r>
       <r>     8.0397     0.8644     7.0323 </r>
       <r>     8.1261     0.8256     7.1036 </r>
       <r>     8.2125     0.6857     7.1629 </r>
       <r>     8.2988     0.2607     7.1854 </r>
       <r>     8.3852     0.2934     7.2107 </r>
       <r>     8.4715     0.9516     7.2929 </r>
       <r>     8.5579     1.6383     7.4344 </r>
       <r>     8.6443     1.5744     7.5704 </r>
       <r>     8.7306     0.7287     7.6333 </r>
       <r>     8.8170     0.5182     7.6780 </r>
       <r>     8.9034     0.7258     7.7407 </r>
       <r>     8.9897     0.8960     7.8181 </r>
       <r>     9.0761     0.8034     7.8875 </r>
       <r>     9.1624     0.5364     7.9338 </r>
       <r>     9.2488     0.3683     7.9656 </r>
       <r>     9.3352     0.6281     8.0199 </r>
       <r>     9.4215     0.9575     8.1026 </r>
       <r>     9.5079     0.8904     8.1795 </r>
       <r>     9.5942     1.0608     8.2711 </r>
       <r>     9.6806     1.1106     8.3670 </r>
       <r>     9.7670     1.0916     8.4612 </r>
       <r>     9.8533     0.6187     8.5147 </r>
       <r>     9.9397     0.4871     8.5567 </r>
       <r>    10.0261     0.9193     8.6361 </r>
       <r>    10.1124     1.0500     8.7268 </r>
       <r>    10.1988     0.7914     8.7952 </r>
       <r>    10.2851     0.5888     8.8460 </r>
       <r>    10.3715     0.7713     8.9126 </r>
       <r>    10.4579     1.4108     9.0345 </r>
       <r>    10.5442     2.0230     9.2092 </r>
       <r>    10.6306     1.7554     9.3608 </r>
       <r>    10.7170     0.8743     9.4363 </r>
       <r>    10.8033     0.6167     9.4895 </r>
       <r>    10.8897     0.9649     9.5729 </r>
       <r>    10.9760     0.9080     9.6513 </r>
       <r>    11.0624     0.9264     9.7313 </r>
       <r>    11.1488     1.2934     9.8430 </r>
       <r>    11.2351     1.5884     9.9802 </r>
       <r>    11.3215     1.3788    10.0992 </r>
       <r>    11.4078     0.9730    10.1833 </r>
       <r>    11.4942     0.8694    10.2583 </r>
       <r>    11.5806     1.0150    10.3460 </r>
       <r>    11.6669     0.7311    10.4091 </r>
       <r>    11.7533     0.3462    10.4390 </r>
       <r>    11.8397     0.2419    10.4599 </r>
       <r>    11.9260     0.5474    10.5072 </r>
       <r>    12.0124     1.3096    10.6203 </r>
       <r>    12.0987     1.3613    10.7379 </r>
       <r>    12.1851     1.0296    10.8268 </r>
       <r>    12.2715     1.6673    10.9708 </r>
       <r>    12.3578     2.5664    11.1924 </r>
       <r>    12.4442     1.6759    11.3371 </r>
       <r>    12.5305     0.3646    11.3686 </r>
       <r>    12.6169     0.0904    11.3764 </r>
       <r>    12.7033     0.4125    11.4121 </r>
       <r>    12.7896     0.8401    11.4846 </r>
       <r>    12.8760     0.9018    11.5625 </r>
       <r>    12.9624     1.1579    11.6625 </r>
       <r>    13.0487     1.4525    11.7879 </r>
       <r>    13.1351     1.3211    11.9020 </r>
       <r>    13.2214     1.2492    12.0099 </r>
       <r>    13.3078     0.9586    12.0927 </r>
       <r>    13.3942     0.7318    12.1559 </r>
       <r>    13.4805     1.0138    12.2434 </r>
       <r>    13.5669     0.9346    12.3242 </r>
       <r>    13.6533     0.7033    12.3849 </r>
       <r>    13.7396     0.8400    12.4574 </r>
       <r>    13.8260     1.0253    12.5460 </r>
       <r>    13.9123     0.5942    12.5973 </r>
       <r>    13.9987     0.6102    12.6500 </r>
       <r>    14.0851     1.0669    12.7421 </r>
       <r>    14.1714     1.6509    12.8847 </r>
       <r>    14.2578     1.9660    13.0545 </r>
       <r>    14.3441     1.4747    13.1819 </r>
       <r>    14.4305     1.0052    13.2687 </r>
       <r>    14.5169     0.6539    13.3251 </r>
       <r>    14.6032     0.6550    13.3817 </r>
       <r>    14.6896     0.7537    13.4468 </r>
       <r>    14.7760     0.7667    13.5130 </r>
       <r>    14.8623     0.7569    13.5784 </r>
       <r>    14.9487     1.1029    13.6736 </r>
       <r>    15.0350     1.3759    13.7925 </r>
       <r>    15.1214     0.9041    13.8705 </r>
       <r>    15.2078     0.2978    13.8962 </r>
       <r>    15.2941     0.3314    13.9249 </r>
       <r>    15.3805     0.7433    13.9891 </r>
       <r>    15.4668     1.2093    14.0935 </r>
       <r>    15.5532     1.3945    14.2139 </r>
       <r>    15.6396     2.0289    14.3892 </r>
       <r>    15.7259     2.3504    14.5921 </r>
       <r>    15.8123     1.3313    14.7071 </r>
       <r>    15.8987     0.7279    14.7700 </r>
       <r>    15.9850     0.4303    14.8071 </r>
       <r>    16.0714     0.1427    14.8195 </r>
       <r>    16.1577     0.1835    14.8353 </r>
       <r>    16.2441     0.1944    14.8521 </r>
       <r>    16.3305     0.4674    14.8925 </r>
       <r>    16.4168     1.5296    15.0246 </r>
       <r>    16.5032     1.8855    15.1874 </r>
       <r>    16.5896     0.9751    15.2716 </r>
       <r>    16.6759     0.5924    15.3228 </r>
       <r>    16.7623     0.5685    15.3719 </r>
       <r>    16.8486     0.4407    15.4099 </r>
       <r>    16.9350     0.6774    15.4684 </r>
       <r>    17.0214     0.9262    15.5484 </r>
       <r>    17.1077     0.4452    15.5869 </r>
       <r>    17.1941     0.0803    15.5938 </r>
       <r>    17.2804     0.1294    15.6050 </r>
       <r>    17.3668     0.4240    15.6416 </r>
       <r>    17.4532     0.8170    15.7121 </r>
       <r>    17.5395     0.7001    15.7726 </r>
       <r>    17.6259     0.3339    15.8014 </r>
       <r>    17.7123     0.1327    15.8129 </r>
       <r>    17.7986     0.0213    15.8147 </r>
       <r>    17.8850     0.0010    15.8148 </r>
       <r>    17.9713     0.0023    15.8150 </r>
       <r>    18.0577     0.0372    15.8182 </r>
       <r>    18.1441     0.1592    15.8320 </r>
       <r>    18.2304     0.2225    15.8512 </r>
       <r>    18.3168     0.2892    15.8762 </r>
       <r>    18.4031     0.3709    15.9082 </r>
       <r>    18.4895     0.1781    15.9236 </r>
       <r>    18.5759     0.0278    15.9260 </r>
       <r>    18.6622     0.0326    15.9288 </r>
       <r>    18.7486     0.1473    15.9415 </r>
       <r>    18.8350     0.1825    15.9573 </r>
       <r>    18.9213     0.0604    15.9625 </r>
       <r>    19.0077     0.0060    15.9630 </r>
       <r>    19.0940     0.0198    15.9647 </r>
       <r>    19.1804     0.1203    15.9751 </r>
       <r>    19.2668     0.1943    15.9919 </r>
       <r>    19.3531     0.0839    15.9992 </r>
       <r>    19.4395     0.0095    16.0000 </r>
       <r>    19.5259     0.0003    16.0000 </r>
       <r>    19.6122     0.0000    16.0000 </r>
       <r>    19.6986     0.0000    16.0000 </r>
       <r>    19.7849     0.0000    16.0000 </r>
       <r>    19.8713     0.0000    16.0000 </r>
       <r>    19.9577     0.0000    16.0000 </r>
       <r>    20.0440     0.0000    16.0000 </r>
       <r>    20.1304     0.0000    16.0000 </r>
       <r>    20.2167     0.0000    16.0000 </r>
       <r>    20.3031     0.0000    16.0000 </r>
       <r>    20.3895     0.0000    16.0000 </r>
      </set>
     </set>
    </array>
   </total>
  </dos>
 </calculation>
 <structure name="finalpos" >
  <crystal>
   <varray name="basis" >
    <v>       2.83621462       0.00000000       0.00000000 </v>
    <v>      -1.41810731       2.45623391      -0.00000000 </v>
    <v>       0.00000000       0.00000000       4.45635147 </v>
   </varray>
   <i name="volume">     31.04475601 </i>
   <varray name="rec_basis" >
    <v>       0.35258263       0.20356367       0.00000000 </v>
    <v>       0.00000000       0.40712735       0.00000000 </v>
    <v>       0.00000000       0.00000000       0.22439882 </v>
   </varray>
  </crystal>
  <varray name="positions" >
   <v>      -0.00000000       0.00000000       0.00000000 </v>
   <v>       0.33333333       0.66666667       0.50000000 </v>
  </varray>
 </structure>
</modeling>
