Fe BCC                                  
   2.80000000000000     
    -0.500000    0.500000    0.500000
     0.500000   -0.500000    0.500000
     0.500000    0.500000   -0.500000
   Fe
     1
Direct
  0.000000  0.000000  0.000000
 
   32   32   32
  92.551      90.455      84.466      75.402      64.390      52.615      41.118      30.700      21.898      15.009    
  10.103      7.0208      5.3852      4.6554      4.2653      4.0203      3.9372      4.0203      4.2653      4.6554    
  5.3852      7.0208      10.103      15.009      21.898      30.700      41.118      52.615      64.390      75.402    
  84.466      90.455      90.455      89.763      85.092      77.095      66.801      55.380      43.918      33.284    
  24.094      16.716      11.290      7.7322      5.7335      4.8011      4.3551      4.0633      3.9271      3.9546    
  4.1442      4.4833      5.0295      6.2547      8.7270      12.885      18.966      26.978      36.704      47.698    
  59.257      70.431      80.084      87.069      84.466      85.092      81.876      75.271      66.155      55.614    
  44.720      34.375      25.243      17.750      12.097      8.2638      6.0123      4.9097      4.4052      4.0785    
  3.8970      3.8711      4.0020      4.2835      4.7066      5.5481      7.3652      10.643      15.690      22.600    
  31.244      41.267      52.082      62.856      72.558      80.084      75.402      77.095      75.271      70.191    
  62.548      53.292      43.422      33.824      25.181      17.954      12.387      8.5141      6.1610      4.9600    
  4.4103      4.0627      3.8468      3.7749      3.8491      4.0677      4.4187      4.9734      6.1844      8.5574    
  12.465      18.082      25.373      34.080      43.729      53.621      62.856      70.431      64.390      66.801    
  66.155      62.548      56.485      48.748      40.220      31.725      23.930      17.303      12.113      8.4324    
  6.1410      4.9337      4.3691      4.0144      3.7774      3.6702      3.6947      3.8513      4.1366      4.5411    
  5.2805      6.8348      9.6182      13.884      19.686      26.869      35.074      43.729      52.082      59.257    
  52.615      55.380      55.614      53.292      48.748      42.590      35.561      28.389      21.688      15.910    
  11.326      8.0324      5.9486      4.8259      4.2842      3.9351      3.6903      3.5604      3.5459      3.6471    
  3.8653      4.1960      4.6595      5.5750      7.3667      10.347      14.658      20.249      26.869      34.080    
  41.267      47.698      41.118      43.918      44.720      43.422      40.220      35.561      30.038      24.264    
  18.779      13.992      10.160      7.3862      5.6164      4.6487      4.1615      3.8288      3.5886      3.4485    
  3.4073      3.4638      3.6208      3.8811      4.2388      4.7603      5.7882      7.6652      10.606      14.658    
  19.686      25.373      31.244      36.704      30.700      33.284      34.375      33.824      31.725      28.389    
  24.264      19.843      15.578      11.820      8.7965      6.6036      5.2025      4.4278      4.0104      3.7022    
  3.4764      3.3374      3.2816      3.3060      3.4125      3.6068      3.8930      4.2645      4.8192      5.8660    
  7.6652      10.347      13.884      18.082      22.600      26.978      21.898      24.094      25.243      25.181    
  23.930      21.688      18.779      15.578      12.443      9.6619      7.4222      5.8033      4.7726      4.1925    
  3.8411      3.5633      3.3592      3.2299      3.1699      3.1745      3.2436      3.3828      3.5999      3.8989    
  4.2733      4.8192      5.7882      7.3667      9.6182      12.465      15.690      18.966      15.009      16.716    
  17.750      17.954      17.303      15.910      13.992      11.820      9.6619      7.7382      6.1936      5.0856    
  4.3817      3.9646      3.6641      3.4208      3.2429      3.1290      3.0727      3.0677      3.1123      3.2101    
  3.3692      3.5978      3.8989      4.2645      4.7603      5.5750      6.8348      8.5574      10.643      12.885    
  10.103      11.290      12.097      12.387      12.113      11.326      10.160      8.7965      7.4222      6.1936    
  5.2123      4.5126      4.0584      3.7485      3.4896      3.2829      3.1333      3.0379      2.9899      2.9830    
  3.0138      3.0840      3.1996      3.3692      3.5999      3.8930      4.2388      4.6595      5.2805      6.1844    
  7.3652      8.7270      7.0208      7.7322      8.2638      8.5141      8.4324      8.0324      7.3862      6.6036    
  5.8033      5.0856      4.5126      4.0963      3.7961      3.5423      3.3263      3.1566      3.0354      2.9592    
  2.9220      2.9179      2.9430      2.9972      3.0840      3.2101      3.3828      3.6068      3.8811      4.1960    
  4.5411      4.9734      5.5481      6.2547      5.3852      5.7335      6.0123      6.1610      6.1410      5.9486    
  5.6164      5.2025      4.7726      4.3817      4.0584      3.7961      3.5620      3.3541      3.1810      3.0471    
  2.9528      2.8952      2.8696      2.8710      2.8959      2.9430      3.0138      3.1123      3.2436      3.4125    
  3.6208      3.8653      4.1366      4.4187      4.7066      5.0295      4.6554      4.8011      4.9097      4.9600    
  4.9337      4.8259      4.6487      4.4278      4.1925      3.9646      3.7485      3.5423      3.3541      3.1912    
  3.0582      2.9572      2.8878      2.8478      2.8338      2.8425      2.8710      2.9179      2.9830      3.0677    
  3.1745      3.3060      3.4638      3.6471      3.8513      4.0677      4.2835      4.4833      4.2653      4.3551    
  4.4052      4.4103      4.3691      4.2842      4.1615      4.0104      3.8411      3.6641      3.4896      3.3263    
  3.1810      3.0582      2.9605      2.8885      2.8414      2.8179      2.8159      2.8338      2.8696      2.9220    
  2.9899      3.0727      3.1699      3.2816      3.4073      3.5459      3.6947      3.8491      4.0020      4.1442    
  4.0203      4.0633      4.0785      4.0627      4.0144      3.9351      3.8288      3.7022      3.5633      3.4208    
  3.2829      3.1566      3.0471      2.9572      2.8885      2.8409      2.8137      2.8063      2.8179      2.8478    
  2.8952      2.9592      3.0379      3.1290      3.2299      3.3374      3.4485      3.5604      3.6702      3.7749    
  3.8711      3.9546      3.9372      3.9271      3.8970      3.8468      3.7774      3.6903      3.5886      3.4764    
  3.3592      3.2429      3.1333      3.0354      2.9528      2.8878      2.8414      2.8137      2.8045      2.8137    
  2.8414      2.8878      2.9528      3.0354      3.1333      3.2429      3.3592      3.4764      3.5886      3.6903    
  3.7774      3.8468      3.8970      3.9271      4.0203      3.9546      3.8711      3.7749      3.6702      3.5604    
  3.4485      3.3374      3.2299      3.1290      3.0379      2.9592      2.8952      2.8478      2.8179      2.8063    
  2.8137      2.8409      2.8885      2.9572      3.0471      3.1566      3.2829      3.4208      3.5633      3.7022    
  3.8288      3.9351      4.0144      4.0627      4.0785      4.0633      4.2653      4.1442      4.0020      3.8491    
  3.6947      3.5459      3.4073      3.2816      3.1699      3.0727      2.9899      2.9220      2.8696      2.8338    
  2.8159      2.8179      2.8414      2.8885      2.9605      3.0582      3.1810      3.3263      3.4896      3.6641    
  3.8411      4.0104      4.1615      4.2842      4.3691      4.4103      4.4052      4.3551      4.6554      4.4833    
  4.2835      4.0677      3.8513      3.6471      3.4638      3.3060      3.1745      3.0677      2.9830      2.9179    
  2.8710      2.8425      2.8338      2.8478      2.8878      2.9572      3.0582      3.1912      3.3541      3.5423    
  3.7485      3.9646      4.1925      4.4278      4.6487      4.8259      4.9337      4.9600      4.9097      4.8011    
  5.3852      5.0295      4.7066      4.4187      4.1366      3.8653      3.6208      3.4125      3.2436      3.1123    
  3.0138      2.9430      2.8959      2.8710      2.8696      2.8952      2.9528      3.0471      3.1810      3.3541    
  3.5620      3.7961      4.0584      4.3817      4.7726      5.2025      5.6164      5.9486      6.1410      6.1610    
  6.0123      5.7335      7.0208      6.2547      5.5481      4.9734      4.5411      4.1960      3.8811      3.6068    
  3.3828      3.2101      3.0840      2.9972      2.9430      2.9179      2.9220      2.9592      3.0354      3.1566    
  3.3263      3.5423      3.7961      4.0963      4.5126      5.0856      5.8033      6.6036      7.3862      8.0324    
  8.4324      8.5141      8.2638      7.7322      10.103      8.7270      7.3652      6.1844      5.2805      4.6595    
  4.2388      3.8930      3.5999      3.3692      3.1996      3.0840      3.0138      2.9830      2.9899      3.0379    
  3.1333      3.2829      3.4896      3.7485      4.0584      4.5126      5.2123      6.1936      7.4222      8.7965    
  10.160      11.326      12.113      12.387      12.097      11.290      15.009      12.885      10.643      8.5574    
  6.8348      5.5750      4.7603      4.2645      3.8989      3.5978      3.3692      3.2101      3.1123      3.0677    
  3.0727      3.1290      3.2429      3.4208      3.6641      3.9646      4.3817      5.0856      6.1936      7.7382    
  9.6619      11.820      13.992      15.910      17.303      17.954      17.750      16.716      21.898      18.966    
  15.690      12.465      9.6182      7.3667      5.7882      4.8192      4.2733      3.8989      3.5999      3.3828    
  3.2436      3.1745      3.1699      3.2299      3.3592      3.5633      3.8411      4.1925      4.7726      5.8033    
  7.4222      9.6619      12.443      15.578      18.779      21.688      23.930      25.181      25.243      24.094    
  30.700      26.978      22.600      18.082      13.884      10.347      7.6652      5.8660      4.8192      4.2645    
  3.8930      3.6068      3.4125      3.3060      3.2816      3.3374      3.4764      3.7022      4.0104      4.4278    
  5.2025      6.6036      8.7965      11.820      15.578      19.843      24.264      28.389      31.725      33.824    
  34.375      33.284      41.118      36.704      31.244      25.373      19.686      14.658      10.606      7.6652    
  5.7882      4.7603      4.2388      3.8811      3.6208      3.4638      3.4073      3.4485      3.5886      3.8288    
  4.1615      4.6487      5.6164      7.3862      10.160      13.992      18.779      24.264      30.038      35.561    
  40.220      43.422      44.720      43.918      52.615      47.698      41.267      34.080      26.869      20.249    
  14.658      10.347      7.3667      5.5750      4.6595      4.1960      3.8653      3.6471      3.5459      3.5604    
  3.6903      3.9351      4.2842      4.8259      5.9486      8.0324      11.326      15.910      21.688      28.389    
  35.561      42.590      48.748      53.292      55.614      55.380      64.390      59.257      52.082      43.729    
  35.074      26.869      19.686      13.884      9.6182      6.8348      5.2805      4.5411      4.1366      3.8513    
  3.6947      3.6702      3.7774      4.0144      4.3691      4.9337      6.1410      8.4324      12.113      17.303    
  23.930      31.725      40.220      48.748      56.485      62.548      66.155      66.801      75.402      70.431    
  62.856      53.621      43.729      34.080      25.373      18.082      12.465      8.5574      6.1844      4.9734    
  4.4187      4.0677      3.8491      3.7749      3.8468      4.0627      4.4103      4.9600      6.1610      8.5141    
  12.387      17.954      25.181      33.824      43.422      53.292      62.548      70.191      75.271      77.095    
  84.466      80.084      72.558      62.856      52.082      41.267      31.244      22.600      15.690      10.643    
  7.3652      5.5481      4.7066      4.2835      4.0020      3.8711      3.8970      4.0785      4.4052      4.9097    
  6.0123      8.2638      12.097      17.750      25.243      34.375      44.720      55.614      66.155      75.271    
  81.876      85.092      90.455      87.069      80.084      70.431      59.257      47.698      36.704      26.978    
  18.966      12.885      8.7270      6.2547      5.0295      4.4833      4.1442      3.9546      3.9271      4.0633    
  4.3551      4.8011      5.7335      7.7322      11.290      16.716      24.094      33.284      43.918      55.380    
  66.801      77.095      85.092      89.763      90.455      89.763      85.092      77.095      66.801      55.380    
  43.918      33.284      24.094      16.716      11.290      7.7322      5.7335      4.8011      4.3551      4.0633    
  3.9271      3.9546      4.1442      4.4833      5.0295      6.2547      8.7270      12.885      18.966      26.978    
  36.704      47.698      59.257      70.431      80.084      87.069      89.763      90.455      87.069      80.084    
  70.431      59.257      47.698      36.704      26.978      18.966      12.885      8.7270      6.2547      5.0295    
  4.4833      4.1442      3.9546      3.9271      4.0633      4.3551      4.8011      5.7335      7.7322      11.290    
  16.716      24.094      33.284      43.918      55.380      66.801      77.095      85.092      85.092      87.069    
  85.092      79.445      70.898      60.512      49.407      38.573      28.769      20.512      14.081      9.5357    
  6.7113      5.2323      4.5707      4.1956      3.9602      3.8805      3.9602      4.1956      4.5707      5.2323    
  6.7113      9.5357      14.081      20.512      28.769      38.573      49.407      60.512      70.898      79.445    
  77.095      80.084      79.445      75.271      68.141      58.973      48.812      38.631      29.216      21.125    
  14.686      10.017      7.0145      5.3715      4.6138      4.2117      3.9419      3.8172      3.8428      4.0178    
  4.3338      4.8059      5.8023      7.8587      11.404      16.681      23.717      32.323      42.089      52.374    
  62.317      70.898      66.801      70.431      70.898      68.141      62.548      54.864      46.006      36.883    
  28.264      20.718      14.606      10.082      7.0991      5.4113      4.6063      4.1892      3.8984      3.7395    
  3.7179      3.8342      4.0860      4.4600      5.0881      6.4436      8.9856      13.026      18.680      25.852    
  34.239      43.321      52.374      60.512      55.380      59.257      60.512      58.973      54.864      48.748    
  41.388      33.589      26.065      19.366      13.859      9.7206      6.9427      5.3337      4.5431      4.1281    
  3.8299      3.6495      3.5914      3.6558      3.8434      4.1506      4.5772      5.3876      7.0353      9.8818    
  14.124      19.763      26.601      34.239      42.089      49.407      43.918      47.698      49.407      48.812    
  46.006      41.388      35.561      29.202      22.940      17.281      12.573      8.9979      6.5717      5.1459    
  4.4270      4.0320      3.7388      3.5498      3.4675      3.4906      3.6203      3.8589      4.2015      4.6857    
  5.6418      7.4515      10.377      14.512      19.763      25.852      32.323      38.573      33.284      36.704    
  38.573      38.631      36.883      33.589      29.202      24.264      19.303      14.761      10.949      8.0374    
  6.0527      4.8782      4.2700      3.9071      3.6294      3.4433      3.3490      3.3431      3.4257      3.6010    
  3.8728      4.2350      4.7654      5.7878      7.6011      10.377      14.124      18.680      23.717      28.769    
  24.094      26.978      28.769      29.216      28.264      26.065      22.940      19.303      15.578      12.127    
  9.2141      6.9878      5.4727      4.5739      4.0888      3.7620      3.5078      3.3339      3.2381      3.2152    
  3.2634      3.3862      3.5908      3.8815      4.2518      4.7950      5.7878      7.4515      9.8818      13.026    
  16.681      20.512      16.716      18.966      20.512      21.125      20.718      19.366      17.281      14.761    
  12.127      9.6619      7.5772      5.9896      4.9160      4.2749      3.8974      3.6064      3.3810      3.2258    
  3.1366      3.1069      3.1329      3.2167      3.3650      3.5864      3.8843      4.2518      4.7654      5.6418    
  7.0353      8.9856      11.404      14.081      11.290      12.885      14.081      14.686      14.606      13.859    
  12.573      10.949      9.2141      7.5772      6.1936      5.1473      4.4430      4.0072      3.7027      3.4499    
  3.2563      3.1234      3.0460      3.0169      3.0312      3.0890      3.1952      3.3583      3.5864      3.8815    
  4.2350      4.6857      5.3876      6.4436      7.8587      9.5357      7.7322      8.7270      9.5357      10.017    
  10.082      9.7206      8.9979      8.0374      6.9878      5.9896      5.1473      4.5126      4.0767      3.7713    
  3.5138      3.3011      3.1403      3.0310      2.9678      2.9440      2.9544      2.9972      3.0753      3.1952    
  3.3650      3.5908      3.8728      4.2015      4.5772      5.0881      5.8023      6.7113      5.7335      6.2547    
  6.7113      7.0145      7.0991      6.9427      6.5717      6.0527      5.4727      4.9160      4.4430      4.0767    
  3.7961      3.5519      3.3392      3.1667      3.0381      2.9520      2.9037      2.8876      2.8989      2.9351    
  2.9972      3.0890      3.2167      3.3862      3.6010      3.8589      4.1506      4.4600      4.8059      5.2323    
  4.8011      5.0295      5.2323      5.3715      5.4113      5.3337      5.1459      4.8782      4.5739      4.2749    
  4.0072      3.7713      3.5519      3.3541      3.1858      3.0517      2.9532      2.8888      2.8551      2.8478    
  2.8633      2.8989      2.9544      3.0312      3.1329      3.2634      3.4257      3.6203      3.8434      4.0860    
  4.3338      4.5707      4.3551      4.4833      4.5707      4.6138      4.6063      4.5431      4.4270      4.2700    
  4.0888      3.8974      3.7027      3.5138      3.3392      3.1858      3.0582      2.9587      2.8873      2.8430    
  2.8233      2.8257      2.8478      2.8876      2.9440      3.0169      3.1069      3.2152      3.3431      3.4906    
  3.6558      3.8342      4.0178      4.1956      4.0633      4.1442      4.1956      4.2117      4.1892      4.1281    
  4.0320      3.9071      3.7620      3.6064      3.4499      3.3011      3.1667      3.0517      2.9587      2.8885    
  2.8410      2.8150      2.8096      2.8233      2.8551      2.9037      2.9678      3.0460      3.1366      3.2381    
  3.3490      3.4675      3.5914      3.7179      3.8428      3.9602      3.9271      3.9546      3.9602      3.9419    
  3.8984      3.8299      3.7388      3.6294      3.5078      3.3810      3.2563      3.1403      3.0381      2.9532    
  2.8873      2.8410      2.8137      2.8052      2.8150      2.8430      2.8888      2.9520      3.0310      3.1234    
  3.2258      3.3339      3.4433      3.5498      3.6495      3.7395      3.8172      3.8805      3.9546      3.9271    
  3.8805      3.8172      3.7395      3.6495      3.5498      3.4433      3.3339      3.2258      3.1234      3.0310    
  2.9520      2.8888      2.8430      2.8150      2.8052      2.8137      2.8410      2.8873      2.9532      3.0381    
  3.1403      3.2563      3.3810      3.5078      3.6294      3.7388      3.8299      3.8984      3.9419      3.9602    
  4.1442      4.0633      3.9602      3.8428      3.7179      3.5914      3.4675      3.3490      3.2381      3.1366    
  3.0460      2.9678      2.9037      2.8551      2.8233      2.8096      2.8150      2.8410      2.8885      2.9587    
  3.0517      3.1667      3.3011      3.4499      3.6064      3.7620      3.9071      4.0320      4.1281      4.1892    
  4.2117      4.1956      4.4833      4.3551      4.1956      4.0178      3.8342      3.6558      3.4906      3.3431    
  3.2152      3.1069      3.0169      2.9440      2.8876      2.8478      2.8257      2.8233      2.8430      2.8873    
  2.9587      3.0582      3.1858      3.3392      3.5138      3.7027      3.8974      4.0888      4.2700      4.4270    
  4.5431      4.6063      4.6138      4.5707      5.0295      4.8011      4.5707      4.3338      4.0860      3.8434    
  3.6203      3.4257      3.2634      3.1329      3.0312      2.9544      2.8989      2.8633      2.8478      2.8551    
  2.8888      2.9532      3.0517      3.1858      3.3541      3.5519      3.7713      4.0072      4.2749      4.5739    
  4.8782      5.1459      5.3337      5.4113      5.3715      5.2323      6.2547      5.7335      5.2323      4.8059    
  4.4600      4.1506      3.8589      3.6010      3.3862      3.2167      3.0890      2.9972      2.9351      2.8989    
  2.8876      2.9037      2.9520      3.0381      3.1667      3.3392      3.5519      3.7961      4.0767      4.4430    
  4.9160      5.4727      6.0527      6.5717      6.9427      7.0991      7.0145      6.7113      8.7270      7.7322    
  6.7113      5.8023      5.0881      4.5772      4.2015      3.8728      3.5908      3.3650      3.1952      3.0753    
  2.9972      2.9544      2.9440      2.9678      3.0310      3.1403      3.3011      3.5138      3.7713      4.0767    
  4.5126      5.1473      5.9896      6.9878      8.0374      8.9979      9.7206      10.082      10.017      9.5357    
  12.885      11.290      9.5357      7.8587      6.4436      5.3876      4.6857      4.2350      3.8815      3.5864    
  3.3583      3.1952      3.0890      3.0312      3.0169      3.0460      3.1234      3.2563      3.4499      3.7027    
  4.0072      4.4430      5.1473      6.1936      7.5772      9.2141      10.949      12.573      13.859      14.606    
  14.686      14.081      18.966      16.716      14.081      11.404      8.9856      7.0353      5.6418      4.7654    
  4.2518      3.8843      3.5864      3.3650      3.2167      3.1329      3.1069      3.1366      3.2258      3.3810    
  3.6064      3.8974      4.2749      4.9160      5.9896      7.5772      9.6619      12.127      14.761      17.281    
  19.366      20.718      21.125      20.512      26.978      24.094      20.512      16.681      13.026      9.8818    
  7.4515      5.7878      4.7950      4.2518      3.8815      3.5908      3.3862      3.2634      3.2152      3.2381    
  3.3339      3.5078      3.7620      4.0888      4.5739      5.4727      6.9878      9.2141      12.127      15.578    
  19.303      22.940      26.065      28.264      29.216      28.769      36.704      33.284      28.769      23.717    
  18.680      14.124      10.377      7.6011      5.7878      4.7654      4.2350      3.8728      3.6010      3.4257    
  3.3431      3.3490      3.4433      3.6294      3.9071      4.2700      4.8782      6.0527      8.0374      10.949    
  14.761      19.303      24.264      29.202      33.589      36.883      38.631      38.573      47.698      43.918    
  38.573      32.323      25.852      19.763      14.512      10.377      7.4515      5.6418      4.6857      4.2015    
  3.8589      3.6203      3.4906      3.4675      3.5498      3.7388      4.0320      4.4270      5.1459      6.5717    
  8.9979      12.573      17.281      22.940      29.202      35.561      41.388      46.006      48.812      49.407    
  59.257      55.380      49.407      42.089      34.239      26.601      19.763      14.124      9.8818      7.0353    
  5.3876      4.5772      4.1506      3.8434      3.6558      3.5914      3.6495      3.8299      4.1281      4.5431    
  5.3337      6.9427      9.7206      13.859      19.366      26.065      33.589      41.388      48.748      54.864    
  58.973      60.512      70.431      66.801      60.512      52.374      43.321      34.239      25.852      18.680    
  13.026      8.9856      6.4436      5.0881      4.4600      4.0860      3.8342      3.7179      3.7395      3.8984    
  4.1892      4.6063      5.4113      7.0991      10.082      14.606      20.718      28.264      36.883      46.006    
  54.864      62.548      68.141      70.898      80.084      77.095      70.898      62.317      52.374      42.089    
  32.323      23.717      16.681      11.404      7.8587      5.8023      4.8059      4.3338      4.0178      3.8428    
  3.8172      3.9419      4.2117      4.6138      5.3715      7.0145      10.017      14.686      21.125      29.216    
  38.631      48.812      58.973      68.141      75.271      79.445      87.069      85.092      79.445      70.898    
  60.512      49.407      38.573      28.769      20.512      14.081      9.5357      6.7113      5.2323      4.5707    
  4.1956      3.9602      3.8805      3.9602      4.1956      4.5707      5.2323      6.7113      9.5357      14.081    
  20.512      28.769      38.573      49.407      60.512      70.898      79.445      85.092      84.466      85.092    
  81.876      75.271      66.155      55.614      44.720      34.375      25.243      17.750      12.097      8.2638    
  6.0123      4.9097      4.4052      4.0785      3.8970      3.8711      4.0020      4.2835      4.7066      5.5481    
  7.3652      10.643      15.690      22.600      31.244      41.267      52.082      62.856      72.558      80.084    
  85.092      87.069      85.092      79.445      70.898      60.512      49.407      38.573      28.769      20.512    
  14.081      9.5357      6.7113      5.2323      4.5707      4.1956      3.9602      3.8805      3.9602      4.1956    
  4.5707      5.2323      6.7113      9.5357      14.081      20.512      28.769      38.573      49.407      60.512    
  70.898      79.445      81.876      85.092      84.466      80.084      72.558      62.856      52.082      41.267    
  31.244      22.600      15.690      10.643      7.3652      5.5481      4.7066      4.2835      4.0020      3.8711    
  3.8970      4.0785      4.4052      4.9097      6.0123      8.2638      12.097      17.750      25.243      34.375    
  44.720      55.614      66.155      75.271      75.271      79.445      80.084      77.095      70.898      62.317    
  52.374      42.089      32.323      23.717      16.681      11.404      7.8587      5.8023      4.8059      4.3338    
  4.0178      3.8428      3.8172      3.9419      4.2117      4.6138      5.3715      7.0145      10.017      14.686    
  21.125      29.216      38.631      48.812      58.973      68.141      66.155      70.898      72.558      70.898    
  66.155      58.973      50.247      40.926      31.857      23.700      16.899      11.689      8.0965      5.9393    
  4.8512      4.3414      4.0041      3.7956      3.7256      3.7956      4.0041      4.3414      4.8512      5.9393    
  8.0965      11.689      16.899      23.700      31.857      40.926      50.247      58.973      55.614      60.512    
  62.856      62.317      58.973      53.292      46.006      37.954      29.925      22.561      16.317      11.451    
  8.0294      5.9234      4.8266      4.3045      3.9594      3.7301      3.6261      3.6482      3.7967      4.0693    
  4.4548      5.1215      6.5227      9.0629      12.995      18.383      25.090      32.782      40.926      48.812    
  44.720      49.407      52.082      52.374      50.247      46.006      40.220      33.589      26.812      20.481    
  15.034      10.733      7.6681      5.7501      4.7278      4.2255      3.8851      3.6478      3.5217      3.5063    
  3.6015      3.8090      4.1257      4.5589      5.3811      7.0018      9.7286      13.709      18.904      25.090    
  31.857      38.631      34.375      38.573      41.267      42.089      40.926      37.954      33.589      28.389    
  22.940      17.762      13.252      9.6592      7.0780      5.4487      4.5657      4.1100      3.7848      3.5514    
  3.4154      3.3743      3.4267      3.5751      3.8231      4.1663      4.6460      5.5697      7.2712      9.9655    
  13.709      18.383      23.700      29.216      25.243      28.769      31.244      32.323      31.857      29.925    
  26.812      22.940      18.779      14.761      11.228      8.3978      6.3606      5.0718      4.3628      3.9664    
  3.6647      3.4450      3.3098      3.2547      3.2764      3.3764      3.5606      3.8336      4.1899      4.6967    
  5.6386      7.2712      9.7286      12.995      16.899      21.125      17.750      20.512      22.600      23.717    
  23.700      22.561      20.481      17.762      14.761      11.820      9.2141      7.1253      5.6262      4.6797    
  4.1450      3.8046      3.5325      3.3336      3.2076      3.1485      3.1512      3.2156      3.3469      3.5531    
  3.8388      4.1977      4.6967      5.5697      7.0018      9.0629      11.689      14.686      12.097      14.081    
  15.690      16.681      16.899      16.317      15.034      13.252      11.228      9.2141      7.4222      5.9896    
  4.9683      4.3217      3.9305      3.6350      3.3966      3.2230      3.1118      3.0561      3.0498      3.0908    
  3.1827      3.3332      3.5508      3.8388      4.1899      4.6460      5.3811      6.5227      8.0965      10.017    
  8.2638      9.5357      10.643      11.404      11.689      11.451      10.733      9.6592      8.3978      7.1253    
  5.9896      5.0856      4.4430      4.0222      3.7219      3.4673      3.2650      3.1187      3.0252      2.9776    
  2.9695      2.9975      3.0632      3.1723      3.3332      3.5531      3.8336      4.1663      4.5589      5.1215    
  5.9393      7.0145      6.0123      6.7113      7.3652      7.8587      8.0965      8.0294      7.6681      7.0780    
  6.3606      5.6262      4.9683      4.4430      4.0584      3.7713      3.5218      3.3102      3.1442      3.0255    