Fe BCC                                  
   2.80000000000000     
    -0.500000    0.500000    0.500000
     0.500000   -0.500000    0.500000
     0.500000    0.500000   -0.500000
   Fe
     1
Direct
  0.000000  0.000000  0.000000
 
   32   32   32
 0.92551233484E+02 0.90454772316E+02 0.84465573961E+02 0.75401997339E+02 0.64390380045E+02
 0.52614969796E+02 0.41118499109E+02 0.30700004503E+02 0.21897723499E+02 0.15008826484E+02
 0.10102883636E+02 0.70208129575E+01 0.53852226987E+01 0.46553758965E+01 0.42652944462E+01
 0.40203444612E+01 0.39372009546E+01 0.40203444612E+01 0.42652944462E+01 0.46553758965E+01
 0.53852226987E+01 0.70208129575E+01 0.10102883636E+02 0.15008826484E+02 0.21897723499E+02
 0.30700004503E+02 0.41118499109E+02 0.52614969796E+02 0.64390380045E+02 0.75401997339E+02
 0.84465573961E+02 0.90454772316E+02 0.90454772316E+02 0.89762761115E+02 0.85092434966E+02
 0.77094985343E+02 0.66801415072E+02 0.55380160600E+02 0.43917537736E+02 0.33284207457E+02
 0.24094006642E+02 0.16715742484E+02 0.11290239720E+02 0.77322090438E+01 0.57334586267E+01
 0.48011205619E+01 0.43550910330E+01 0.40632720092E+01 0.39271423552E+01 0.39545521216E+01
 0.41442118189E+01 0.44833273857E+01 0.50294624350E+01 0.62547186740E+01 0.87270086356E+01
 0.12885405540E+02 0.18965765824E+02 0.26977524378E+02 0.36704406452E+02 0.47697709785E+02
 0.59257020667E+02 0.70430511722E+02 0.80084381836E+02 0.87068859442E+02 0.84465573961E+02
 0.85092434966E+02 0.81875758668E+02 0.75270679530E+02 0.66154975028E+02 0.55614219757E+02
 0.44720180747E+02 0.34374714169E+02 0.25242942258E+02 0.17750134876E+02 0.12096869826E+02
 0.82638416934E+01 0.60123164288E+01 0.49097386741E+01 0.44051798003E+01 0.40785407934E+01
 0.38969679929E+01 0.38711083197E+01 0.40020319350E+01 0.42834730411E+01 0.47066060143E+01
 0.55481443551E+01 0.73652032080E+01 0.10642618913E+02 0.15689971359E+02 0.22600176446E+02
 0.31243666803E+02 0.41267320191E+02 0.52081969402E+02 0.62855998444E+02 0.72558009539E+02
 0.80084381836E+02 0.75401997339E+02 0.77094985343E+02 0.75270679530E+02 0.70190973006E+02
 0.62548325260E+02 0.53291923135E+02 0.43421833773E+02 0.33823797336E+02 0.25181217302E+02
 0.17954019218E+02 0.12386720843E+02 0.85140559289E+01 0.61610244479E+01 0.49600044291E+01
 0.44102613819E+01 0.40626836578E+01 0.38468297059E+01 0.37749163897E+01 0.38491398153E+01
 0.40676705899E+01 0.44186711932E+01 0.49734416802E+01 0.61844152331E+01 0.85573597464E+01
 0.12464528895E+02 0.18082481497E+02 0.25372560747E+02 0.34079924412E+02 0.43729337514E+02
 0.53620848152E+02 0.62855998444E+02 0.70430511722E+02 0.64390380045E+02 0.66801415072E+02
 0.66154975028E+02 0.62548325260E+02 0.56485214867E+02 0.48747769121E+02 0.40219535686E+02
 0.31725271250E+02 0.23930391515E+02 0.17303153876E+02 0.12112604309E+02 0.84323691329E+01
 0.61409604345E+01 0.49336779095E+01 0.43691188150E+01 0.40143967857E+01 0.37774067573E+01
 0.36701809362E+01 0.36947209446E+01 0.38512712094E+01 0.41365668981E+01 0.45411415157E+01
 0.52804645152E+01 0.68347960625E+01 0.96181612428E+01 0.13883754053E+02 0.19685550820E+02
 0.26869499450E+02 0.35073551102E+02 0.43729337514E+02 0.52081969402E+02 0.59257020667E+02
 0.52614969796E+02 0.55380160600E+02 0.55614219757E+02 0.53291923135E+02 0.48747769121E+02
 0.42590411334E+02 0.35560903646E+02 0.28388672669E+02 0.21688303567E+02 0.15909723705E+02
 0.11325793701E+02 0.80323656256E+01 0.59485911841E+01 0.48258554507E+01 0.42841811345E+01
 0.39350654566E+01 0.36903480117E+01 0.35603825174E+01 0.35458602215E+01 0.36470530011E+01
 0.38653080997E+01 0.41960062417E+01 0.46595032676E+01 0.55749617614E+01 0.73667202567E+01
 0.10347189759E+02 0.14658482242E+02 0.20248878267E+02 0.26869499450E+02 0.34079924412E+02
 0.41267320191E+02 0.47697709785E+02 0.41118499109E+02 0.43917537736E+02 0.44720180747E+02
 0.43421833773E+02 0.40219535686E+02 0.35560903646E+02 0.30037529639E+02 0.24263630282E+02
 0.18778657608E+02 0.13991564697E+02 0.10160034990E+02 0.73861902274E+01 0.56164255987E+01
 0.46487204875E+01 0.41615429417E+01 0.38288351040E+01 0.35885914345E+01 0.34485106503E+01
 0.34072713557E+01 0.34638067760E+01 0.36207724021E+01 0.38811403547E+01 0.42388433730E+01
 0.47602821062E+01 0.57881956045E+01 0.76652154912E+01 0.10606421010E+02 0.14658482242E+02
 0.19685550820E+02 0.25372560747E+02 0.31243666803E+02 0.36704406452E+02 0.30700004503E+02
 0.33284207457E+02 0.34374714169E+02 0.33823797336E+02 0.31725271250E+02 0.28388672669E+02
 0.24263630282E+02 0.19843151138E+02 0.15577778831E+02 0.11819656625E+02 0.87965260488E+01
 0.66035772955E+01 0.52024803764E+01 0.44277836313E+01 0.40104401771E+01 0.37022134008E+01
 0.34764219112E+01 0.33373830846E+01 0.32815792676E+01 0.33060176726E+01 0.34125092520E+01
 0.36068491401E+01 0.38929696896E+01 0.42644988250E+01 0.48191916783E+01 0.58660014194E+01
 0.76652154912E+01 0.10347189759E+02 0.13883754053E+02 0.18082481497E+02 0.22600176446E+02
 0.26977524378E+02 0.21897723499E+02 0.24094006642E+02 0.25242942258E+02 0.25181217302E+02
 0.23930391515E+02 0.21688303567E+02 0.18778657608E+02 0.15577778831E+02 0.12443198409E+02
 0.96618832052E+01 0.74222440717E+01 0.58032612223E+01 0.47726189534E+01 0.41924748632E+01
 0.38410653778E+01 0.35632965250E+01 0.33592149251E+01 0.32298868570E+01 0.31699301946E+01
 0.31745190248E+01 0.32436477777E+01 0.33828118366E+01 0.35999349118E+01 0.38989063506E+01
 0.42733043263E+01 0.48191916783E+01 0.57881956045E+01 0.73667202567E+01 0.96181612428E+01
 0.12464528895E+02 0.15689971359E+02 0.18965765824E+02 0.15008826484E+02 0.16715742484E+02
 0.17750134876E+02 0.17954019218E+02 0.17303153876E+02 0.15909723705E+02 0.13991564697E+02
 0.11819656625E+02 0.96618832052E+01 0.77382474775E+01 0.61936479925E+01 0.50856261701E+01
 0.43817067072E+01 0.39645870957E+01 0.36640851327E+01 0.34207756463E+01 0.32429042969E+01
 0.31290412449E+01 0.30726752762E+01 0.30677255512E+01 0.31123168233E+01 0.32101349278E+01
 0.33691631413E+01 0.35978004374E+01 0.38989063506E+01 0.42644988250E+01 0.47602821062E+01
 0.55749617614E+01 0.68347960625E+01 0.85573597464E+01 0.10642618913E+02 0.12885405540E+02
 0.10102883636E+02 0.11290239720E+02 0.12096869826E+02 0.12386720843E+02 0.12112604309E+02
 0.11325793701E+02 0.10160034990E+02 0.87965260488E+01 0.74222440717E+01 0.61936479925E+01
 0.52123055519E+01 0.45125749295E+01 0.40584288864E+01 0.37484872966E+01 0.34895901676E+01
 0.32829081104E+01 0.31332903931E+01 0.30378720555E+01 0.29899451139E+01 0.29830120802E+01
 0.30138465330E+01 0.30840071487E+01 0.31995937905E+01 0.33691631413E+01 0.35999349118E+01
 0.38929696896E+01 0.42388433730E+01 0.46595032676E+01 0.52804645152E+01 0.61844152331E+01
 0.73652032080E+01 0.87270086356E+01 0.70208129575E+01 0.77322090438E+01 0.82638416934E+01
 0.85140559289E+01 0.84323691329E+01 0.80323656256E+01 0.73861902274E+01 0.66035772955E+01
 0.58032612223E+01 0.50856261701E+01 0.45125749295E+01 0.40963163448E+01 0.37961198288E+01
 0.35423025982E+01 0.33262886571E+01 0.31566431224E+01 0.30353600822E+01 0.29591677175E+01
 0.29220372582E+01 0.29179236926E+01 0.29430269223E+01 0.29971611273E+01 0.30840071487E+01
 0.32101349278E+01 0.33828118366E+01 0.36068491401E+01 0.38811403547E+01 0.41960062417E+01
 0.45411415157E+01 0.49734416802E+01 0.55481443551E+01 0.62547186740E+01 0.53852226987E+01
 0.57334586267E+01 0.60123164288E+01 0.61610244479E+01 0.61409604345E+01 0.59485911841E+01
 0.56164255987E+01 0.52024803764E+01 0.47726189534E+01 0.43817067072E+01 0.40584288864E+01
 0.37961198288E+01 0.35620428202E+01 0.33541401440E+01 0.31809665548E+01 0.30470655191E+01
 0.29528013500E+01 0.28952342484E+01 0.28696165400E+01 0.28710459248E+01 0.28959310670E+01
 0.29430269223E+01 0.30138465330E+01 0.31123168233E+01 0.32436477777E+01 0.34125092520E+01
 0.36207724021E+01 0.38653080997E+01 0.41365668981E+01 0.44186711932E+01 0.47066060143E+01
 0.50294624350E+01 0.46553758965E+01 0.48011205619E+01 0.49097386741E+01 0.49600044291E+01
 0.49336779095E+01 0.48258554507E+01 0.46487204875E+01 0.44277836313E+01 0.41924748632E+01
 0.39645870957E+01 0.37484872966E+01 0.35423025982E+01 0.33541401440E+01 0.31912015970E+01
 0.30582263286E+01 0.29572490301E+01 0.28878438861E+01 0.28477632950E+01 0.28337662492E+01
 0.28424587292E+01 0.28710459248E+01 0.29179236926E+01 0.29830120802E+01 0.30677255512E+01
 0.31745190248E+01 0.33060176726E+01 0.34638067760E+01 0.36470530011E+01 0.38512712094E+01
 0.40676705899E+01 0.42834730411E+01 0.44833273857E+01 0.42652944462E+01 0.43550910330E+01
 0.44051798003E+01 0.44102613819E+01 0.43691188150E+01 0.42841811345E+01 0.41615429417E+01
 0.40104401771E+01 0.38410653778E+01 0.36640851327E+01 0.34895901676E+01 0.33262886571E+01
 0.31809665548E+01 0.30582263286E+01 0.29605272005E+01 0.28885009573E+01 0.28414485059E+01
 0.28178757458E+01 0.28159419648E+01 0.28337662492E+01 0.28696165400E+01 0.29220372582E+01
 0.29899451139E+01 0.30726752762E+01 0.31699301946E+01 0.32815792676E+01 0.34072713557E+01
 0.35458602215E+01 0.36947209446E+01 0.38491398153E+01 0.40020319350E+01 0.41442118189E+01
 0.40203444612E+01 0.40632720092E+01 0.40785407934E+01 0.40626836578E+01 0.40143967857E+01
 0.39350654566E+01 0.38288351040E+01 0.37022134008E+01 0.35632965250E+01 0.34207756463E+01
 0.32829081104E+01 0.31566431224E+01 0.30470655191E+01 0.29572490301E+01 0.28885009573E+01
 0.28408723766E+01 0.28137464039E+01 0.28063224026E+01 0.28178757458E+01 0.28477632950E+01
 0.28952342484E+01 0.29591677175E+01 0.30378720555E+01 0.31290412449E+01 0.32298868570E+01
 0.33373830846E+01 0.34485106503E+01 0.35603825174E+01 0.36701809362E+01 0.37749163897E+01
 0.38711083197E+01 0.39545521216E+01 0.39372009546E+01 0.39271423552E+01 0.38969679929E+01
 0.38468297059E+01 0.37774067573E+01 0.36903480117E+01 0.35885914345E+01 0.34764219112E+01
 0.33592149251E+01 0.32429042969E+01 0.31332903931E+01 0.30353600822E+01 0.29528013500E+01
 0.28878438861E+01 0.28414485059E+01 0.28137464039E+01 0.28045496336E+01 0.28137464039E+01
 0.28414485059E+01 0.28878438861E+01 0.29528013500E+01 0.30353600822E+01 0.31332903931E+01
 0.32429042969E+01 0.33592149251E+01 0.34764219112E+01 0.35885914345E+01 0.36903480117E+01
 0.37774067573E+01 0.38468297059E+01 0.38969679929E+01 0.39271423552E+01 0.40203444612E+01
 0.39545521216E+01 0.38711083197E+01 0.37749163897E+01 0.36701809362E+01 0.35603825174E+01
 0.34485106503E+01 0.33373830846E+01 0.32298868570E+01 0.31290412449E+01 0.30378720555E+01
 0.29591677175E+01 0.28952342484E+01 0.28477632950E+01 0.28178757458E+01 0.28063224026E+01
 0.28137464039E+01 0.28408723766E+01 0.28885009573E+01 0.29572490301E+01 0.30470655191E+01
 0.31566431224E+01 0.32829081104E+01 0.34207756463E+01 0.35632965250E+01 0.37022134008E+01
 0.38288351040E+01 0.39350654566E+01 0.40143967857E+01 0.40626836578E+01 0.40785407934E+01
 0.40632720092E+01 0.42652944462E+01 0.41442118189E+01 0.40020319350E+01 0.38491398153E+01
 0.36947209446E+01 0.35458602215E+01 0.34072713557E+01 0.32815792676E+01 0.31699301946E+01
 0.30726752762E+01 0.29899451139E+01 0.29220372582E+01 0.28696165400E+01 0.28337662492E+01
 0.28159419648E+01 0.28178757458E+01 0.28414485059E+01 0.28885009573E+01 0.29605272005E+01
 0.30582263286E+01 0.31809665548E+01 0.33262886571E+01 0.34895901676E+01 0.36640851327E+01
 0.38410653778E+01 0.40104401771E+01 0.41615429417E+01 0.42841811345E+01 0.43691188150E+01
 0.44102613819E+01 0.44051798003E+01 0.43550910330E+01 0.46553758965E+01 0.44833273857E+01
 0.42834730411E+01 0.40676705899E+01 0.38512712094E+01 0.36470530011E+01 0.34638067760E+01
 0.33060176726E+01 0.31745190248E+01 0.30677255512E+01 0.29830120802E+01 0.29179236926E+01
 0.28710459248E+01 0.28424587292E+01 0.28337662492E+01 0.28477632950E+01 0.28878438861E+01
 0.29572490301E+01 0.30582263286E+01 0.31912015970E+01 0.33541401440E+01 0.35423025982E+01
 0.37484872966E+01 0.39645870957E+01 0.41924748632E+01 0.44277836313E+01 0.46487204875E+01
 0.48258554507E+01 0.49336779095E+01 0.49600044291E+01 0.49097386741E+01 0.48011205619E+01
 0.53852226987E+01 0.50294624350E+01 0.47066060143E+01 0.44186711932E+01 0.41365668981E+01
 0.38653080997E+01 0.36207724021E+01 0.34125092520E+01 0.32436477777E+01 0.31123168233E+01
 0.30138465330E+01 0.29430269223E+01 0.28959310670E+01 0.28710459248E+01 0.28696165400E+01
 0.28952342484E+01 0.29528013500E+01 0.30470655191E+01 0.31809665548E+01 0.33541401440E+01
 0.35620428202E+01 0.37961198288E+01 0.40584288864E+01 0.43817067072E+01 0.47726189534E+01
 0.52024803764E+01 0.56164255987E+01 0.59485911841E+01 0.61409604345E+01 0.61610244479E+01
 0.60123164288E+01 0.57334586267E+01 0.70208129575E+01 0.62547186740E+01 0.55481443551E+01
 0.49734416802E+01 0.45411415157E+01 0.41960062417E+01 0.38811403547E+01 0.36068491401E+01
 0.33828118366E+01 0.32101349278E+01 0.30840071487E+01 0.29971611273E+01 0.29430269223E+01
 0.29179236926E+01 0.29220372582E+01 0.29591677175E+01 0.30353600822E+01 0.31566431224E+01
 0.33262886571E+01 0.35423025982E+01 0.37961198288E+01 0.40963163448E+01 0.45125749295E+01
 0.50856261701E+01 0.58032612223E+01 0.66035772955E+01 0.73861902274E+01 0.80323656256E+01
 0.84323691329E+01 0.85140559289E+01 0.82638416934E+01 0.77322090438E+01 0.10102883636E+02
 0.87270086356E+01 0.73652032080E+01 0.61844152331E+01 0.52804645152E+01 0.46595032676E+01
 0.42388433730E+01 0.38929696896E+01 0.35999349118E+01 0.33691631413E+01 0.31995937905E+01
 0.30840071487E+01 0.30138465330E+01 0.29830120802E+01 0.29899451139E+01 0.30378720555E+01
 0.31332903931E+01 0.32829081104E+01 0.34895901676E+01 0.37484872966E+01 0.40584288864E+01
 0.45125749295E+01 0.52123055519E+01 0.61936479925E+01 0.74222440717E+01 0.87965260488E+01
 0.10160034990E+02 0.11325793701E+02 0.12112604309E+02 0.12386720843E+02 0.12096869826E+02
 0.11290239720E+02 0.15008826484E+02 0.12885405540E+02 0.10642618913E+02 0.85573597464E+01
 0.68347960625E+01 0.55749617614E+01 0.47602821062E+01 0.42644988250E+01 0.38989063506E+01
 0.35978004374E+01 0.33691631413E+01 0.32101349278E+01 0.31123168233E+01 0.30677255512E+01
 0.30726752762E+01 0.31290412449E+01 0.32429042969E+01 0.34207756463E+01 0.36640851327E+01
 0.39645870957E+01 0.43817067072E+01 0.50856261701E+01 0.61936479925E+01 0.77382474775E+01
 0.96618832052E+01 0.11819656625E+02 0.13991564697E+02 0.15909723705E+02 0.17303153876E+02
 0.17954019218E+02 0.17750134876E+02 0.16715742484E+02 0.21897723499E+02 0.18965765824E+02
 0.15689971359E+02 0.12464528895E+02 0.96181612428E+01 0.73667202567E+01 0.57881956045E+01
 0.48191916783E+01 0.42733043263E+01 0.38989063506E+01 0.35999349118E+01 0.33828118366E+01
 0.32436477777E+01 0.31745190248E+01 0.31699301946E+01 0.32298868570E+01 0.33592149251E+01
 0.35632965250E+01 0.38410653778E+01 0.41924748632E+01 0.47726189534E+01 0.58032612223E+01
 0.74222440717E+01 0.96618832052E+01 0.12443198409E+02 0.15577778831E+02 0.18778657608E+02
 0.21688303567E+02 0.23930391515E+02 0.25181217302E+02 0.25242942258E+02 0.24094006642E+02
 0.30700004503E+02 0.26977524378E+02 0.22600176446E+02 0.18082481497E+02 0.13883754053E+02
 0.10347189759E+02 0.76652154912E+01 0.58660014194E+01 0.48191916783E+01 0.42644988250E+01
 0.38929696896E+01 0.36068491401E+01 0.34125092520E+01 0.33060176726E+01 0.32815792676E+01
 0.33373830846E+01 0.34764219112E+01 0.37022134008E+01 0.40104401771E+01 0.44277836313E+01
 0.52024803764E+01 0.66035772955E+01 0.87965260488E+01 0.11819656625E+02 0.15577778831E+02
 0.19843151138E+02 0.24263630282E+02 0.28388672669E+02 0.31725271250E+02 0.33823797336E+02
 0.34374714169E+02 0.33284207457E+02 0.41118499109E+02 0.36704406452E+02 0.31243666803E+02
 0.25372560747E+02 0.19685550820E+02 0.14658482242E+02 0.10606421010E+02 0.76652154912E+01
 0.57881956045E+01 0.47602821062E+01 0.42388433730E+01 0.38811403547E+01 0.36207724021E+01
 0.34638067760E+01 0.34072713557E+01 0.34485106503E+01 0.35885914345E+01 0.38288351040E+01
 0.41615429417E+01 0.46487204875E+01 0.56164255987E+01 0.73861902274E+01 0.10160034990E+02
 0.13991564697E+02 0.18778657608E+02 0.24263630282E+02 0.30037529639E+02 0.35560903646E+02
 0.40219535686E+02 0.43421833773E+02 0.44720180747E+02 0.43917537736E+02 0.52614969796E+02
 0.47697709785E+02 0.41267320191E+02 0.34079924412E+02 0.26869499450E+02 0.20248878267E+02
 0.14658482242E+02 0.10347189759E+02 0.73667202567E+01 0.55749617614E+01 0.46595032676E+01
 0.41960062417E+01 0.38653080997E+01 0.36470530011E+01 0.35458602215E+01 0.35603825174E+01
 0.36903480117E+01 0.39350654566E+01 0.42841811345E+01 0.48258554507E+01 0.59485911841E+01
 0.80323656256E+01 0.11325793701E+02 0.15909723705E+02 0.21688303567E+02 0.28388672669E+02
 0.35560903646E+02 0.42590411334E+02 0.48747769121E+02 0.53291923135E+02 0.55614219757E+02
 0.55380160600E+02 0.64390380045E+02 0.59257020667E+02 0.52081969402E+02 0.43729337514E+02
 0.35073551102E+02 0.26869499450E+02 0.19685550820E+02 0.13883754053E+02 0.96181612428E+01
 0.68347960625E+01 0.52804645152E+01 0.45411415157E+01 0.41365668981E+01 0.38512712094E+01
 0.36947209446E+01 0.36701809362E+01 0.37774067573E+01 0.40143967857E+01 0.43691188150E+01
 0.49336779095E+01 0.61409604345E+01 0.84323691329E+01 0.12112604309E+02 0.17303153876E+02
 0.23930391515E+02 0.31725271250E+02 0.40219535686E+02 0.48747769121E+02 0.56485214867E+02
 0.62548325260E+02 0.66154975028E+02 0.66801415072E+02 0.75401997339E+02 0.70430511722E+02
 0.62855998444E+02 0.53620848152E+02 0.43729337514E+02 0.34079924412E+02 0.25372560747E+02
 0.18082481497E+02 0.12464528895E+02 0.85573597464E+01 0.61844152331E+01 0.49734416802E+01
 0.44186711932E+01 0.40676705899E+01 0.38491398153E+01 0.37749163897E+01 0.38468297059E+01
 0.40626836578E+01 0.44102613819E+01 0.49600044291E+01 0.61610244479E+01 0.85140559289E+01
 0.12386720843E+02 0.17954019218E+02 0.25181217302E+02 0.33823797336E+02 0.43421833773E+02
 0.53291923135E+02 0.62548325260E+02 0.70190973006E+02 0.75270679530E+02 0.77094985343E+02
 0.84465573961E+02 0.80084381836E+02 0.72558009539E+02 0.62855998444E+02 0.52081969402E+02
 0.41267320191E+02 0.31243666803E+02 0.22600176446E+02 0.15689971359E+02 0.10642618913E+02
 0.73652032080E+01 0.55481443551E+01 0.47066060143E+01 0.42834730411E+01 0.40020319350E+01
 0.38711083197E+01 0.38969679929E+01 0.40785407934E+01 0.44051798003E+01 0.49097386741E+01
 0.60123164288E+01 0.82638416934E+01 0.12096869826E+02 0.17750134876E+02 0.25242942258E+02
 0.34374714169E+02 0.44720180747E+02 0.55614219757E+02 0.66154975028E+02 0.75270679530E+02
 0.81875758668E+02 0.85092434966E+02 0.90454772316E+02 0.87068859442E+02 0.80084381836E+02
 0.70430511722E+02 0.59257020667E+02 0.47697709785E+02 0.36704406452E+02 0.26977524378E+02
 0.18965765824E+02 0.12885405540E+02 0.87270086356E+01 0.62547186740E+01 0.50294624350E+01
 0.44833273857E+01 0.41442118189E+01 0.39545521216E+01 0.39271423552E+01 0.40632720092E+01
 0.43550910330E+01 0.48011205619E+01 0.57334586267E+01 0.77322090438E+01 0.11290239720E+02
 0.16715742484E+02 0.24094006642E+02 0.33284207457E+02 0.43917537736E+02 0.55380160600E+02
 0.66801415072E+02 0.77094985343E+02 0.85092434966E+02 0.89762761115E+02 0.90454772316E+02
 0.89762761115E+02 0.85092434966E+02 0.77094985343E+02 0.66801415072E+02 0.55380160600E+02
 0.43917537736E+02 0.33284207457E+02 0.24094006642E+02 0.16715742484E+02 0.11290239720E+02
 0.77322090438E+01 0.57334586267E+01 0.48011205619E+01 0.43550910330E+01 0.40632720092E+01
 0.39271423552E+01 0.39545521216E+01 0.41442118189E+01 0.44833273857E+01 0.50294624350E+01
 0.62547186740E+01 0.87270086356E+01 0.12885405540E+02 0.18965765824E+02 0.26977524378E+02
 0.36704406452E+02 0.47697709785E+02 0.59257020667E+02 0.70430511722E+02 0.80084381836E+02
 0.87068859442E+02 0.89762761115E+02 0.90454772462E+02 0.87068859716E+02 0.80084382202E+02
 0.70430512131E+02 0.59257021070E+02 0.47697710143E+02 0.36704406743E+02 0.26977524596E+02
 0.18965765980E+02 0.12885405651E+02 0.87270087206E+01 0.62547187463E+01 0.50294624993E+01
 0.44833274393E+01 0.41442118549E+01 0.39545521336E+01 0.39271423411E+01 0.40632719721E+01
 0.43550909796E+01 0.48011204985E+01 0.57334585549E+01 0.77322089576E+01 0.11290239606E+02
 0.16715742326E+02 0.24094006426E+02 0.33284207180E+02 0.43917537411E+02 0.55380160255E+02
 0.66801414749E+02 0.77094985090E+02 0.85092434826E+02 0.85092434966E+02 0.87068859716E+02
 0.85092435206E+02 0.79445488358E+02 0.70898247088E+02 0.60512466707E+02 0.49407453952E+02
 0.38572556868E+02 0.28769258072E+02 0.20511616724E+02 0.14080914151E+02 0.95357453591E+01
 0.67112738430E+01 0.52323481878E+01 0.45706959157E+01 0.41956480278E+01 0.39602159459E+01
 0.38805482810E+01 0.39602159026E+01 0.41956479499E+01 0.45706958157E+01 0.52323480745E+01
 0.67112737147E+01 0.95357452001E+01 0.14080913934E+02 0.20511616419E+02 0.28769257659E+02
 0.38572556345E+02 0.49407453349E+02 0.60512466080E+02 0.70898246513E+02 0.79445487917E+02
 0.77094985343E+02 0.80084382202E+02 0.79445488358E+02 0.75270679777E+02 0.68140645053E+02
 0.58973481868E+02 0.48812146852E+02 0.38631111016E+02 0.29216469340E+02 0.21124671998E+02
 0.14686447034E+02 0.10016585699E+02 0.70144922626E+01 0.53715156351E+01 0.46138194915E+01
 0.42117289916E+01 0.39419079932E+01 0.38172422153E+01 0.38427626806E+01 0.40177893737E+01
 0.43338198614E+01 0.48059272428E+01 0.58022640713E+01 0.78587336808E+01 0.11403908431E+02
 0.16680639262E+02 0.23716821391E+02 0.32322882357E+02 0.42088819116E+02 0.52374263153E+02
 0.62316644694E+02 0.70898246636E+02 0.66801415072E+02 0.70430512131E+02 0.70898247088E+02
 0.68140645053E+02 0.62548325432E+02 0.54864303198E+02 0.46006206309E+02 0.36882979987E+02
 0.28263902136E+02 0.20718357702E+02 0.14605921937E+02 0.10081998443E+02 0.70990950666E+01
 0.54113089498E+01 0.46062754640E+01 0.41892139386E+01 0.38983615752E+01 0.37394879734E+01
 0.37179346073E+01 0.38342275220E+01 0.40859670177E+01 0.44599606422E+01 0.50880908026E+01
 0.64435724067E+01 0.89855776936E+01 0.13025891164E+02 0.18679730970E+02 0.25852459163E+02
 0.34238972402E+02 0.43321194590E+02 0.52374263251E+02 0.60512466292E+02 0.55380160600E+02
 0.59257021070E+02 0.60512466707E+02 0.58973481868E+02 0.54864303198E+02 0.48747769175E+02
 0.41387916440E+02 0.33588868212E+02 0.26064611894E+02 0.19366306996E+02 0.13858977408E+02
 0.97205774814E+01 0.69426790878E+01 0.53337013101E+01 0.45430696665E+01 0.41281432196E+01
 0.38298893165E+01 0.36495039801E+01 0.35914290236E+01 0.36558461985E+01 0.38434126904E+01
 0.41505562917E+01 0.45771805345E+01 0.53876169307E+01 0.70352894149E+01 0.98818091429E+01
 0.14123910849E+02 0.19763392581E+02 0.26601130265E+02 0.34238972469E+02 0.42088819274E+02
 0.49407453606E+02 0.43917537736E+02 0.47697710143E+02 0.49407453952E+02 0.48812146852E+02
 0.46006206309E+02 0.41387916440E+02 0.35560903589E+02 0.29201659216E+02 0.22939847925E+02
 0.17280978778E+02 0.12572922832E+02 0.89979453194E+01 0.65716983140E+01 0.51458698396E+01
 0.44270380786E+01 0.40319556369E+01 0.37387904881E+01 0.35497757888E+01 0.34674606797E+01
 0.34905760080E+01 0.36202806533E+01 0.38589031357E+01 0.42015154120E+01 0.46857007419E+01
 0.56417974583E+01 0.74514664154E+01 0.10376735870E+02 0.14511575431E+02 0.19763392617E+02
 0.25852459261E+02 0.32322882534E+02 0.38572556605E+02 0.33284207457E+02 0.36704406743E+02
 0.38572556868E+02 0.38631111016E+02 0.36882979987E+02 0.33588868212E+02 0.29201659216E+02
 0.24263630159E+02 0.19303411763E+02 0.14761046133E+02 0.10948810471E+02 0.80373871465E+01
 0.60527005104E+01 0.48781706036E+01 0.42700465672E+01 0.39070628996E+01 0.36294047354E+01
 0.34433444161E+01 0.33489869602E+01 0.33430893470E+01 0.34256561046E+01 0.36009721990E+01
 0.38727755289E+01 0.42349543836E+01 0.47654494978E+01 0.57877806382E+01 0.76011091015E+01
 0.10376735881E+02 0.14123910892E+02 0.18679731068E+02 0.23716821556E+02 0.28769257889E+02
 0.24094006642E+02 0.26977524596E+02 0.28769258072E+02 0.29216469340E+02 0.28263902136E+02
 0.26064611894E+02 0.22939847925E+02 0.19303411763E+02 0.15577778699E+02 0.12126582047E+02
 0.92141393142E+01 0.69877944157E+01 0.54727466951E+01 0.45739027836E+01 0.40888438249E+01
 0.37620137293E+01 0.35077760310E+01 0.33339254587E+01 0.32381295020E+01 0.32152250251E+01
 0.32633602491E+01 0.33862097467E+01 0.35908380045E+01 0.38814610702E+01 0.42518191802E+01
 0.47949602598E+01 0.57877806333E+01 0.74514664194E+01 0.98818091746E+01 0.13025891241E+02
 0.16680639393E+02 0.20511616602E+02 0.16715742484E+02 0.18965765980E+02 0.20511616724E+02
 0.21124671998E+02 0.20718357702E+02 0.19366306996E+02 0.17280978778E+02 0.14761046133E+02
 0.12126582047E+02 0.96618831080E+01 0.75772256792E+01 0.59895829688E+01 0.49159754648E+01
 0.42748580254E+01 0.38973945554E+01 0.36064329727E+01 0.33809876272E+01 0.32257868679E+01
 0.31365957048E+01 0.31068546055E+01 0.31329257993E+01 0.32166774980E+01 0.33650215846E+01
 0.35863508015E+01 0.38843162772E+01 0.42518191695E+01 0.47654494814E+01 0.56417974482E+01
 0.70352894270E+01 0.89855777425E+01 0.11403908524E+02 0.14080914068E+02 0.11290239720E+02
 0.12885405651E+02 0.14080914151E+02 0.14686447034E+02 0.14605921937E+02 0.13858977408E+02
 0.12572922832E+02 0.10948810471E+02 0.92141393142E+01 0.75772256792E+01 0.61936479458E+01
 0.51472988785E+01 0.44429669086E+01 0.40072403757E+01 0.37027180828E+01 0.34499199228E+01
 0.32563013175E+01 0.31234010652E+01 0.30459677732E+01 0.30168663389E+01 0.30312467619E+01
 0.30890085490E+01 0.31952132972E+01 0.33583267088E+01 0.35863507930E+01 0.38814610513E+01
 0.42349543585E+01 0.46857007207E+01 0.53876169270E+01 0.64435724327E+01 0.78587337429E+01
 0.95357452949E+01 0.77322090438E+01 0.87270087206E+01 0.95357453591E+01 0.10016585699E+02
 0.10081998443E+02 0.97205774814E+01 0.89979453194E+01 0.80373871465E+01 0.69877944157E+01
 0.59895829688E+01 0.51472988785E+01 0.45125749247E+01 0.40767310570E+01 0.37713346051E+01
 0.35137508665E+01 0.33010683092E+01 0.31402823711E+01 0.30309676383E+01 0.29678206172E+01
 0.29440317541E+01 0.29543512749E+01 0.29971686627E+01 0.30752826678E+01 0.31952132948E+01
 0.33650215746E+01 0.35908379851E+01 0.38727755034E+01 0.42015153889E+01 0.45771805250E+01
 0.50880908169E+01 0.58022641148E+01 0.67112737850E+01 0.57334586267E+01 0.62547187463E+01
 0.67112738430E+01 0.70144922626E+01 0.70990950666E+01 0.69426790878E+01 0.65716983140E+01
 0.60527005104E+01 0.54727466951E+01 0.49159754648E+01 0.44429669086E+01 0.40767310570E+01
 0.37961198457E+01 0.35519062506E+01 0.33391880032E+01 0.31667437045E+01 0.30381069004E+01
 0.29519556967E+01 0.29037077744E+01 0.28876367159E+01 0.28989083990E+01 0.29351328724E+01
 0.29971686659E+01 0.30890085507E+01 0.32166774938E+01 0.33862097350E+01 0.36009721823E+01
 0.38589031207E+01 0.41505562872E+01 0.44599606562E+01 0.48059272798E+01 0.52323481329E+01
 0.48011205619E+01 0.50294624993E+01 0.52323481878E+01 0.53715156351E+01 0.54113089498E+01
 0.53337013101E+01 0.51458698396E+01 0.48781706036E+01 0.45739027836E+01 0.42748580254E+01
 0.40072403757E+01 0.37713346051E+01 0.35519062506E+01 0.33541401639E+01 0.31858256009E+01
 0.30517133110E+01 0.29532108118E+01 0.28888180790E+01 0.28550932216E+01 0.28478376297E+01
 0.28632538173E+01 0.28989084049E+01 0.29543512847E+01 0.30312467716E+01 0.31329258053E+01
 0.32633602499E+01 0.34256561020E+01 0.36202806520E+01 0.38434126968E+01 0.40859670379E+01
 0.43338198986E+01 0.45706958689E+01 0.43550910330E+01 0.44833274393E+01 0.45706959157E+01
 0.46138194915E+01 0.46062754640E+01 0.45430696665E+01 0.44270380786E+01 0.42700465672E+01
 0.40888438249E+01 0.38973945554E+01 0.37027180828E+01 0.35137508665E+01 0.33391880032E+01
 0.31858256009E+01 0.30582263422E+01 0.29586566303E+01 0.28873419984E+01 0.28429718622E+01
 0.28233058729E+01 0.28257488882E+01 0.28478376351E+01 0.28876367272E+01 0.29440317696E+01
 0.30168663557E+01 0.31068546208E+01 0.32152250376E+01 0.33430893576E+01 0.34905760195E+01
 0.36558462151E+01 0.38342275476E+01 0.40177894104E+01 0.41956479968E+01 0.40632720092E+01
 0.41442118549E+01 0.41956480278E+01 0.42117289916E+01 0.41892139386E+01 0.41281432196E+01
 0.40319556369E+01 0.39070628996E+01 0.37620137293E+01 0.36064329727E+01 0.34499199228E+01
 0.33010683092E+01 0.31667437045E+01 0.30517133110E+01 0.29586566303E+01 0.28885009643E+01
 0.28409500889E+01 0.28150381699E+01 0.28095609276E+01 0.28233058758E+01 0.28550932291E+01
 0.29037077869E+01 0.29678206337E+01 0.30459677919E+01 0.31365957238E+01 0.32381295202E+01
 0.33489869776E+01 0.34674606975E+01 0.35914290438E+01 0.37179346319E+01 0.38427627105E+01
 0.39602159372E+01 0.39271423552E+01 0.39545521336E+01 0.39602159459E+01 0.39419079932E+01
 0.38983615752E+01 0.38298893165E+01 0.37387904881E+01 0.36294047354E+01 0.35077760310E+01
 0.33809876272E+01 0.32563013175E+01 0.31402823711E+01 0.30381069004E+01 0.29532108118E+01
 0.28873419984E+01 0.28409500889E+01 0.28137464082E+01 0.28052331750E+01 0.28150381701E+01
 0.28429718641E+01 0.28888180835E+01 0.29519557044E+01 0.30309676493E+01 0.31234010788E+01
 0.32257868831E+01 0.33339254747E+01 0.34433444320E+01 0.35497758044E+01 0.36495039954E+01
 0.37394879886E+01 0.38172422306E+01 0.38805482960E+01 0.39545521216E+01 0.39271423411E+01
 0.38805482810E+01 0.38172422153E+01 0.37394879734E+01 0.36495039801E+01 0.35497757888E+01
 0.34433444161E+01 0.33339254587E+01 0.32257868679E+01 0.31234010652E+01 0.30309676383E+01
 0.29519556967E+01 0.28888180790E+01 0.28429718622E+01 0.28150381699E+01 0.28052331750E+01
 0.28137464073E+01 0.28409500867E+01 0.28873419952E+01 0.29532108084E+01 0.30381068981E+01
 0.31402823712E+01 0.32563013208E+01 0.33809876336E+01 0.35077760396E+01 0.36294047446E+01
 0.37387904960E+01 0.38298893213E+01 0.38983615757E+01 0.39419079889E+01 0.39602159372E+01
 0.41442118189E+01 0.40632719721E+01 0.39602159026E+01 0.38427626806E+01 0.37179346073E+01
 0.35914290236E+01 0.34674606797E+01 0.33489869602E+01 0.32381295020E+01 0.31365957048E+01
 0.30459677732E+01 0.29678206172E+01 0.29037077744E+01 0.28550932216E+01 0.28233058729E+01
 0.28095609276E+01 0.28150381701E+01 0.28409500867E+01 0.28885009580E+01 0.29586566195E+01
 0.30517132970E+01 0.31667436901E+01 0.33010682972E+01 0.34499199155E+01 0.36064329710E+01
 0.37620137319E+01 0.39070629037E+01 0.40319556386E+01 0.41281432151E+01 0.41892139252E+01