   1   1   1   0
  0.1097600E+02  0.2424871E-09  0.2424871E-09  0.2424871E-09  0.5000000E-15
  1.000000000000000E-004
  CAR 
 Fe BCC                                  
     48.04874960     -4.73046068  301      6.08772461      1.00000000
     -4.730  0.0000E+00  0.0000E+00  0.0000E+00  0.0000E+00
     -4.555  0.0000E+00  0.0000E+00  0.0000E+00  0.0000E+00
     -4.379  0.0000E+00  0.0000E+00  0.0000E+00  0.0000E+00
     -4.203  0.0000E+00  0.0000E+00  0.0000E+00  0.0000E+00
     -4.027  0.0000E+00  0.0000E+00  0.0000E+00  0.0000E+00
     -3.851  0.0000E+00  0.0000E+00  0.0000E+00  0.0000E+00
     -3.675  0.0000E+00  0.0000E+00  0.0000E+00  0.0000E+00
     -3.499  0.0000E+00  0.0000E+00  0.0000E+00  0.0000E+00
     -3.323  0.0000E+00  0.0000E+00  0.0000E+00  0.0000E+00
     -3.147  0.0000E+00  0.0000E+00  0.0000E+00  0.0000E+00
     -2.971  0.0000E+00  0.0000E+00  0.0000E+00  0.0000E+00
     -2.795  0.0000E+00  0.0000E+00  0.0000E+00  0.0000E+00
     -2.619  0.0000E+00  0.0000E+00  0.0000E+00  0.0000E+00
     -2.443  0.0000E+00  0.0000E+00  0.0000E+00  0.0000E+00
     -2.267  0.1183E-01  0.0000E+00  0.1329E-02  0.0000E+00
     -2.092  0.1800E-01  0.0000E+00  0.3968E-02  0.0000E+00
     -1.916  0.2319E-01  0.1155E-01  0.7606E-02  0.1293E-02
     -1.740  0.2741E-01  0.1753E-01  0.1207E-01  0.3865E-02
     -1.564  0.3434E-01  0.2253E-01  0.1744E-01  0.7404E-02
     -1.388  0.4091E-01  0.2656E-01  0.2409E-01  0.1174E-01
     -1.212  0.4585E-01  0.3288E-01  0.3174E-01  0.1690E-01
     -1.036  0.4708E-01  0.3904E-01  0.3994E-01  0.2325E-01
     -0.860  0.5250E-01  0.4357E-01  0.4870E-01  0.3054E-01
     -0.684  0.5842E-01  0.4369E-01  0.5845E-01  0.3835E-01
     -0.508  0.6484E-01  0.4796E-01  0.6928E-01  0.4641E-01
     -0.332  0.7178E-01  0.5254E-01  0.8129E-01  0.5524E-01
     -0.156  0.7922E-01  0.5744E-01  0.9457E-01  0.6491E-01
      0.020  0.8945E-01  0.6266E-01  0.1092E+00  0.7547E-01
      0.196  0.1060E+00  0.6819E-01  0.1264E+00  0.8698E-01
      0.372  0.1238E+00  0.7404E-01  0.1466E+00  0.9948E-01
      0.547  0.1447E+00  0.8150E-01  0.1700E+00  0.1130E+00
      0.723  0.1810E+00  0.9030E-01  0.1985E+00  0.1282E+00
      0.899  0.2292E+00  0.9870E-01  0.2344E+00  0.1448E+00
      1.075  0.4329E+00  0.1071E+00  0.2848E+00  0.1629E+00
      1.251  0.5226E+00  0.1189E+00  0.3679E+00  0.1827E+00
      1.427  0.7059E+00  0.1340E+00  0.4741E+00  0.2049E+00
      1.603  0.9397E+00  0.1514E+00  0.6202E+00  0.2300E+00
      1.779  0.9332E+00  0.1712E+00  0.7976E+00  0.2583E+00
      1.955  0.6104E+00  0.1934E+00  0.9393E+00  0.2903E+00
      2.131  0.4404E+00  0.2923E+00  0.1029E+01  0.3299E+00
      2.307  0.2879E+00  0.4151E+00  0.1091E+01  0.3965E+00
      2.483  0.3687E+00  0.4155E+00  0.1154E+01  0.4685E+00
      2.659  0.1655E+01  0.4295E+00  0.1403E+01  0.5432E+00
      2.835  0.1286E+01  0.5365E+00  0.1669E+01  0.6282E+00
      3.010  0.7341E+00  0.7615E+00  0.1834E+01  0.7396E+00
      3.186  0.7782E+00  0.6487E+00  0.1965E+01  0.8786E+00
      3.362  0.1108E+01  0.4504E+00  0.2126E+01  0.9759E+00
      3.538  0.1835E+01  0.3256E+00  0.2383E+01  0.1044E+01
      3.714  0.9329E+00  0.1555E+00  0.2660E+01  0.1086E+01
      3.890  0.4372E+00  0.4189E+00  0.2763E+01  0.1124E+01
      4.066  0.3740E+00  0.1202E+01  0.2833E+01  0.1283E+01
      4.242  0.3644E+00  0.1453E+01  0.2898E+01  0.1511E+01
      4.418  0.4399E+00  0.9295E+00  0.2965E+01  0.1740E+01
      4.594  0.6205E+00  0.9503E+00  0.3064E+01  0.1901E+01
      4.770  0.1089E+01  0.1034E+01  0.3206E+01  0.2075E+01
      4.946  0.1753E+01  0.1283E+01  0.3455E+01  0.2267E+01
      5.122  0.2069E+01  0.1354E+01  0.3806E+01  0.2511E+01
      5.298  0.1645E+01  0.9313E+00  0.4131E+01  0.2710E+01
      5.474  0.1309E+01  0.3331E+00  0.4478E+01  0.2818E+01
      5.649  0.9562E+00  0.2580E+00  0.4676E+01  0.2870E+01
      5.825  0.8014E+00  0.2139E+00  0.4824E+01  0.2911E+01
      6.001  0.7850E+00  0.1954E+00  0.4961E+01  0.2948E+01
      6.177  0.1065E+01  0.2755E+00  0.5127E+01  0.2986E+01
      6.353  0.2523E+00  0.3768E+00  0.5223E+01  0.3045E+01
      6.529  0.1464E+00  0.5172E+00  0.5254E+01  0.3123E+01
      6.705  0.1518E+00  0.8205E+00  0.5280E+01  0.3243E+01
      6.881  0.1723E+00  0.1209E+01  0.5311E+01  0.3418E+01
      7.057  0.1683E+00  0.1527E+01  0.5341E+01  0.3665E+01
      7.233  0.1588E+00  0.1359E+01  0.5369E+01  0.3943E+01
      7.409  0.1488E+00  0.1371E+01  0.5397E+01  0.4174E+01
      7.585  0.1481E+00  0.2247E+01  0.5423E+01  0.4449E+01
      7.761  0.1478E+00  0.1132E+01  0.5449E+01  0.4767E+01
      7.937  0.1476E+00  0.9892E+00  0.5475E+01  0.4951E+01
      8.112  0.1475E+00  0.1075E+01  0.5501E+01  0.5134E+01
      8.288  0.1476E+00  0.2260E+00  0.5527E+01  0.5238E+01
      8.464  0.1472E+00  0.2263E+00  0.5553E+01  0.5276E+01
      8.640  0.1456E+00  0.2243E+00  0.5578E+01  0.5315E+01
      8.816  0.1429E+00  0.2104E+00  0.5604E+01  0.5354E+01
      8.992  0.1474E+00  0.1905E+00  0.5629E+01  0.5389E+01
      9.168  0.1411E+00  0.1824E+00  0.5654E+01  0.5422E+01
      9.344  0.1337E+00  0.1802E+00  0.5678E+01  0.5454E+01
      9.520  0.1349E+00  0.1785E+00  0.5702E+01  0.5485E+01
      9.696  0.1266E+00  0.1776E+00  0.5727E+01  0.5516E+01
      9.872  0.1217E+00  0.1755E+00  0.5748E+01  0.5548E+01
     10.048  0.1168E+00  0.1712E+00  0.5769E+01  0.5578E+01
     10.224  0.1121E+00  0.1649E+00  0.5790E+01  0.5608E+01
     10.400  0.1074E+00  0.1634E+00  0.5809E+01  0.5637E+01
     10.576  0.1028E+00  0.1513E+00  0.5827E+01  0.5665E+01
     10.751  0.9742E-01  0.1485E+00  0.5845E+01  0.5691E+01
     10.927  0.9105E-01  0.1507E+00  0.5862E+01  0.5717E+01
     11.103  0.8475E-01  0.1360E+00  0.5877E+01  0.5744E+01
     11.279  0.7853E-01  0.1299E+00  0.5891E+01  0.5767E+01
     11.455  0.8142E-01  0.1240E+00  0.5905E+01  0.5789E+01
     11.631  0.7493E-01  0.1183E+00  0.5919E+01  0.5811E+01
     11.807  0.6582E-01  0.1127E+00  0.5931E+01  0.5831E+01
     11.983  0.4653E-01  0.1069E+00  0.5941E+01  0.5850E+01
     12.159  0.4285E-01  0.9913E-01  0.5949E+01  0.5868E+01
     12.335  0.3937E-01  0.9149E-01  0.5957E+01  0.5885E+01
     12.511  0.3588E-01  0.9194E-01  0.5965E+01  0.5902E+01
     12.687  0.2792E-01  0.8285E-01  0.5970E+01  0.5917E+01
     12.863  0.2196E-01  0.7163E-01  0.5974E+01  0.5931E+01
     13.039  0.1800E-01  0.5183E-01  0.5978E+01  0.5942E+01
     13.214  0.1603E-01  0.4743E-01  0.5981E+01  0.5950E+01
     13.390  0.1667E-01  0.4328E-01  0.5984E+01  0.5958E+01
     13.566  0.2035E-01  0.3938E-01  0.5987E+01  0.5967E+01
     13.742  0.2706E-01  0.3030E-01  0.5991E+01  0.5973E+01
     13.918  0.5695E-01  0.2343E-01  0.5998E+01  0.5978E+01
     14.094  0.9160E-01  0.1877E-01  0.6011E+01  0.5981E+01
     14.270  0.1442E+00  0.1631E-01  0.6032E+01  0.5984E+01
     14.446  0.2024E+00  0.1639E-01  0.6064E+01  0.5987E+01
     14.622  0.2444E+00  0.1934E-01  0.6103E+01  0.5990E+01
     14.798  0.2521E+00  0.2516E-01  0.6147E+01  0.5994E+01
     14.974  0.2645E+00  0.3633E-01  0.6192E+01  0.6000E+01
     15.150  0.2857E+00  0.7464E-01  0.6240E+01  0.6010E+01
     15.326  0.1863E+00  0.1317E+00  0.6277E+01  0.6027E+01
     15.502  0.1820E+00  0.1985E+00  0.6309E+01  0.6058E+01
     15.678  0.1771E+00  0.2475E+00  0.6341E+01  0.6097E+01
     15.853  0.1718E+00  0.2793E+00  0.6371E+01  0.6144E+01
     16.029  0.1673E+00  0.2923E+00  0.6401E+01  0.6195E+01
     16.205  0.1695E+00  0.2920E+00  0.6431E+01  0.6247E+01
     16.381  0.1786E+00  0.2032E+00  0.6462E+01  0.6286E+01
     16.557  0.1713E+00  0.1972E+00  0.6493E+01  0.6321E+01
     16.733  0.1605E+00  0.1924E+00  0.6524E+01  0.6355E+01
     16.909  0.1645E+00  0.1944E+00  0.6553E+01  0.6389E+01
     17.085  0.1690E+00  0.1957E+00  0.6582E+01  0.6423E+01
     17.261  0.1744E+00  0.1640E+00  0.6612E+01  0.6461E+01
     17.437  0.1817E+00  0.1656E+00  0.6644E+01  0.6490E+01
     17.613  0.1961E+00  0.1740E+00  0.6679E+01  0.6521E+01
     17.789  0.1984E+00  0.1776E+00  0.6713E+01  0.6552E+01
     17.965  0.2007E+00  0.1818E+00  0.6748E+01  0.6583E+01
     18.141  0.2035E+00  0.1865E+00  0.6784E+01  0.6616E+01
     18.316  0.2059E+00  0.1935E+00  0.6820E+01  0.6649E+01
     18.492  0.2070E+00  0.2077E+00  0.6856E+01  0.6686E+01
     18.668  0.2136E+00  0.2098E+00  0.6895E+01  0.6723E+01
     18.844  0.2013E+00  0.2121E+00  0.6934E+01  0.6760E+01
     19.020  0.1898E+00  0.2144E+00  0.6970E+01  0.6797E+01
     19.196  0.1874E+00  0.2161E+00  0.7003E+01  0.6835E+01
     19.372  0.1850E+00  0.2231E+00  0.7036E+01  0.6875E+01
     19.548  0.1827E+00  0.2098E+00  0.7068E+01  0.6916E+01
     19.724  0.1807E+00  0.2081E+00  0.7100E+01  0.6953E+01
     19.900  0.1799E+00  0.1949E+00  0.7132E+01  0.6988E+01
     20.076  0.1786E+00  0.1925E+00  0.7163E+01  0.7022E+01
     20.252  0.1772E+00  0.1901E+00  0.7194E+01  0.7056E+01
     20.428  0.1788E+00  0.1878E+00  0.7226E+01  0.7089E+01
     20.604  0.1751E+00  0.1867E+00  0.7257E+01  0.7122E+01
     20.779  0.1721E+00  0.1854E+00  0.7288E+01  0.7154E+01
     20.955  0.1708E+00  0.1842E+00  0.7318E+01  0.7187E+01
     21.131  0.1685E+00  0.1953E+00  0.7348E+01  0.7219E+01
     21.307  0.1671E+00  0.1836E+00  0.7377E+01  0.7253E+01
     21.483  0.1659E+00  0.1789E+00  0.7407E+01  0.7284E+01
     21.659  0.1646E+00  0.1777E+00  0.7436E+01  0.7316E+01
     21.835  0.1634E+00  0.1755E+00  0.7465E+01  0.7347E+01
     22.011  0.1621E+00  0.1742E+00  0.7493E+01  0.7377E+01
     22.187  0.1664E+00  0.1731E+00  0.7522E+01  0.7408E+01
     22.363  0.1671E+00  0.1720E+00  0.7552E+01  0.7438E+01
     22.539  0.1697E+00  0.1709E+00  0.7581E+01  0.7469E+01
     22.715  0.1732E+00  0.1698E+00  0.7611E+01  0.7499E+01
     22.891  0.1776E+00  0.1688E+00  0.7642E+01  0.7528E+01
     23.067  0.1865E+00  0.1676E+00  0.7674E+01  0.7558E+01
     23.243  0.1976E+00  0.1664E+00  0.7709E+01  0.7587E+01
     23.418  0.2088E+00  0.1743E+00  0.7746E+01  0.7618E+01
     23.594  0.2265E+00  0.1795E+00  0.7784E+01  0.7649E+01
     23.770  0.2233E+00  0.1882E+00  0.7825E+01  0.7681E+01
     23.946  0.2299E+00  0.1986E+00  0.7864E+01  0.7715E+01
     24.122  0.2359E+00  0.2361E+00  0.7905E+01  0.7753E+01
     24.298  0.2413E+00  0.2270E+00  0.7947E+01  0.7792E+01
     24.474  0.2466E+00  0.2425E+00  0.7990E+01  0.7834E+01
     24.650  0.2499E+00  0.2408E+00  0.8034E+01  0.7876E+01
     24.826  0.2493E+00  0.2474E+00  0.8078E+01  0.7919E+01
     25.002  0.2624E+00  0.2534E+00  0.8123E+01  0.7963E+01
     25.178  0.2716E+00  0.2483E+00  0.8170E+01  0.8006E+01
     25.354  0.2786E+00  0.2525E+00  0.8219E+01  0.8050E+01
     25.530  0.2897E+00  0.2631E+00  0.8269E+01  0.8095E+01
     25.706  0.3117E+00  0.2726E+00  0.8322E+01  0.8143E+01
     25.881  0.3012E+00  0.2817E+00  0.8376E+01  0.8193E+01
     26.057  0.2973E+00  0.2902E+00  0.8429E+01  0.8243E+01
     26.233  0.2876E+00  0.3011E+00  0.8481E+01  0.8295E+01
     26.409  0.2839E+00  0.3277E+00  0.8531E+01  0.8350E+01
     26.585  0.2763E+00  0.3080E+00  0.8580E+01  0.8405E+01
     26.761  0.2678E+00  0.3048E+00  0.8628E+01  0.8459E+01
     26.937  0.2585E+00  0.2941E+00  0.8674E+01  0.8512E+01
     27.113  0.2476E+00  0.2891E+00  0.8719E+01  0.8563E+01
     27.289  0.2345E+00  0.2776E+00  0.8761E+01  0.8613E+01
     27.465  0.2194E+00  0.2672E+00  0.8801E+01  0.8661E+01
     27.641  0.2046E+00  0.2554E+00  0.8839E+01  0.8707E+01
     27.817  0.1805E+00  0.2414E+00  0.8873E+01  0.8751E+01
     27.993  0.1639E+00  0.2251E+00  0.8903E+01  0.8792E+01
     28.169  0.1551E+00  0.2076E+00  0.8931E+01  0.8830E+01
     28.345  0.1481E+00  0.1874E+00  0.8957E+01  0.8865E+01
     28.520  0.1465E+00  0.1716E+00  0.8983E+01  0.8896E+01
     28.696  0.1463E+00  0.1603E+00  0.9009E+01  0.8925E+01
     28.872  0.1514E+00  0.1529E+00  0.9035E+01  0.8953E+01
     29.048  0.1462E+00  0.1461E+00  0.9062E+01  0.8979E+01
     29.224  0.1458E+00  0.1474E+00  0.9087E+01  0.9005E+01
     29.400  0.1453E+00  0.1505E+00  0.9113E+01  0.9031E+01
     29.576  0.1550E+00  0.1489E+00  0.9140E+01  0.9058E+01
     29.752  0.1482E+00  0.1482E+00  0.9166E+01  0.9084E+01
     29.928  0.1383E+00  0.1443E+00  0.9192E+01  0.9111E+01
     30.104  0.1411E+00  0.1451E+00  0.9216E+01  0.9136E+01
     30.280  0.1451E+00  0.1527E+00  0.9241E+01  0.9164E+01
     30.456  0.1509E+00  0.1395E+00  0.9267E+01  0.9189E+01
     30.632  0.1578E+00  0.1426E+00  0.9294E+01  0.9214E+01
     30.808  0.1657E+00  0.1458E+00  0.9323E+01  0.9240E+01
     30.983  0.1722E+00  0.1500E+00  0.9354E+01  0.9266E+01
     31.159  0.2275E+00  0.1564E+00  0.9388E+01  0.9293E+01
     31.335  0.3832E+00  0.1593E+00  0.9440E+01  0.9321E+01
     31.511  0.2709E+00  0.1660E+00  0.9504E+01  0.9350E+01
     31.687  0.2491E+00  0.1933E+00  0.9550E+01  0.9381E+01
     31.863  0.2266E+00  0.2734E+00  0.9591E+01  0.9421E+01
     32.039  0.1994E+00  0.3614E+00  0.9629E+01  0.9484E+01
     32.215  0.1774E+00  0.2792E+00  0.9662E+01  0.9537E+01
     32.391  0.1769E+00  0.2541E+00  0.9693E+01  0.9584E+01
     32.567  0.1771E+00  0.2211E+00  0.9724E+01  0.9626E+01
     32.743  0.1811E+00  0.1921E+00  0.9756E+01  0.9662E+01
     32.919  0.1748E+00  0.1900E+00  0.9787E+01  0.9695E+01
     33.095  0.1685E+00  0.1823E+00  0.9817E+01  0.9728E+01
     33.271  0.1622E+00  0.1745E+00  0.9846E+01  0.9759E+01
     33.447  0.1735E+00  0.1723E+00  0.9876E+01  0.9789E+01
     33.622  0.1588E+00  0.1665E+00  0.9906E+01  0.9819E+01
     33.798  0.1558E+00  0.1612E+00  0.9934E+01  0.9848E+01
     33.974  0.2157E+00  0.1563E+00  0.9963E+01  0.9876E+01
     34.150  0.2173E+00  0.1587E+00  0.1000E+02  0.9908E+01
     34.326  0.2577E+00  0.1568E+00  0.1004E+02  0.9936E+01
     34.502  0.2773E+00  0.1482E+00  0.1009E+02  0.9963E+01
     34.678  0.3092E+00  0.2224E+00  0.1014E+02  0.9998E+01
     34.854  0.3245E+00  0.2316E+00  0.1020E+02  0.1004E+02
     35.030  0.3221E+00  0.2734E+00  0.1026E+02  0.1008E+02
     35.206  0.3259E+00  0.3027E+00  0.1031E+02  0.1013E+02
     35.382  0.3230E+00  0.3138E+00  0.1037E+02  0.1019E+02
     35.558  0.3283E+00  0.3260E+00  0.1043E+02  0.1024E+02
     35.734  0.3176E+00  0.3303E+00  0.1048E+02  0.1030E+02
     35.910  0.2944E+00  0.3269E+00  0.1054E+02  0.1036E+02
     36.085  0.2636E+00  0.3289E+00  0.1059E+02  0.1042E+02
     36.261  0.2505E+00  0.3179E+00  0.1063E+02  0.1047E+02
     36.437  0.2385E+00  0.3012E+00  0.1067E+02  0.1053E+02
     36.613  0.2315E+00  0.2779E+00  0.1072E+02  0.1058E+02
     36.789  0.2253E+00  0.2601E+00  0.1076E+02  0.1063E+02
     36.965  0.2178E+00  0.2494E+00  0.1080E+02  0.1067E+02
     37.141  0.2142E+00  0.2381E+00  0.1083E+02  0.1071E+02
     37.317  0.2035E+00  0.2314E+00  0.1087E+02  0.1075E+02
     37.493  0.2011E+00  0.2336E+00  0.1091E+02  0.1080E+02
     37.669  0.2075E+00  0.2326E+00  0.1094E+02  0.1084E+02
     37.845  0.2200E+00  0.2141E+00  0.1098E+02  0.1088E+02
     38.021  0.2401E+00  0.1996E+00  0.1102E+02  0.1091E+02
     38.197  0.2562E+00  0.2052E+00  0.1106E+02  0.1095E+02
     38.373  0.2699E+00  0.2163E+00  0.1111E+02  0.1099E+02
     38.548  0.3018E+00  0.2314E+00  0.1116E+02  0.1102E+02
     38.724  0.3091E+00  0.2501E+00  0.1121E+02  0.1107E+02
     38.900  0.3466E+00  0.2774E+00  0.1128E+02  0.1111E+02
     39.076  0.3163E+00  0.2903E+00  0.1134E+02  0.1116E+02
     39.252  0.2796E+00  0.3021E+00  0.1139E+02  0.1121E+02
     39.428  0.2309E+00  0.3408E+00  0.1143E+02  0.1127E+02
     39.604  0.2230E+00  0.3239E+00  0.1147E+02  0.1133E+02
     39.780  0.2151E+00  0.2925E+00  0.1151E+02  0.1139E+02
     39.956  0.2072E+00  0.2427E+00  0.1155E+02  0.1143E+02
     40.132  0.1994E+00  0.2239E+00  0.1159E+02  0.1147E+02
     40.308  0.1916E+00  0.2159E+00  0.1162E+02  0.1151E+02
     40.484  0.1778E+00  0.2079E+00  0.1165E+02  0.1155E+02
     40.660  0.1710E+00  0.2000E+00  0.1168E+02  0.1159E+02
     40.836  0.1643E+00  0.1869E+00  0.1171E+02  0.1162E+02
     41.012  0.1688E+00  0.1802E+00  0.1174E+02  0.1165E+02
     41.187  0.1826E+00  0.1736E+00  0.1177E+02  0.1168E+02
     41.363  0.1850E+00  0.1671E+00  0.1181E+02  0.1171E+02
     41.539  0.1966E+00  0.1734E+00  0.1184E+02  0.1174E+02
     41.715  0.1075E+00  0.1758E+00  0.1186E+02  0.1177E+02
     41.891  0.8236E-01  0.1728E+00  0.1188E+02  0.1181E+02
     42.067  0.6763E-01  0.1906E+00  0.1189E+02  0.1184E+02
     42.243  0.6229E-01  0.1101E+00  0.1191E+02  0.1186E+02
     42.419  0.5816E-01  0.8025E-01  0.1192E+02  0.1188E+02
     42.595  0.5420E-01  0.6720E-01  0.1193E+02  0.1189E+02
     42.771  0.5039E-01  0.6286E-01  0.1194E+02  0.1191E+02
     42.947  0.4674E-01  0.5868E-01  0.1194E+02  0.1192E+02
     43.123  0.4324E-01  0.5465E-01  0.1195E+02  0.1193E+02
     43.299  0.3990E-01  0.5077E-01  0.1196E+02  0.1194E+02
     43.475  0.3672E-01  0.4706E-01  0.1197E+02  0.1194E+02
     43.650  0.3369E-01  0.4350E-01  0.1197E+02  0.1195E+02
     43.826  0.3082E-01  0.4010E-01  0.1198E+02  0.1196E+02
     44.002  0.2380E-01  0.3686E-01  0.1198E+02  0.1197E+02
     44.178  0.2178E-01  0.3377E-01  0.1199E+02  0.1197E+02
     44.354  0.1989E-01  0.2650E-01  0.1199E+02  0.1198E+02
     44.530  0.1610E-01  0.2426E-01  0.1200E+02  0.1198E+02
     44.706  0.7439E-02  0.2216E-01  0.1200E+02  0.1199E+02
     44.882  0.3164E-02  0.2019E-01  0.1200E+02  0.1199E+02
     45.058  0.2418E-02  0.1570E-01  0.1200E+02  0.1200E+02
     45.234  0.0000E+00  0.9136E-02  0.1200E+02  0.1200E+02
     45.410  0.0000E+00  0.4711E-02  0.1200E+02  0.1200E+02
     45.586  0.0000E+00  0.1397E-03  0.1200E+02  0.1200E+02
     45.762  0.0000E+00  0.0000E+00  0.1200E+02  0.1200E+02
     45.938  0.0000E+00  0.0000E+00  0.1200E+02  0.1200E+02
     46.114  0.0000E+00  0.0000E+00  0.1200E+02  0.1200E+02
     46.289  0.0000E+00  0.0000E+00  0.1200E+02  0.1200E+02
     46.465  0.0000E+00  0.0000E+00  0.1200E+02  0.1200E+02
     46.641  0.0000E+00  0.0000E+00  0.1200E+02  0.1200E+02
     46.817  0.0000E+00  0.0000E+00  0.1200E+02  0.1200E+02
     46.993  0.0000E+00  0.0000E+00  0.1200E+02  0.1200E+02
     47.169  0.0000E+00  0.0000E+00  0.1200E+02  0.1200E+02
     47.345  0.0000E+00  0.0000E+00  0.1200E+02  0.1200E+02
     47.521  0.0000E+00  0.0000E+00  0.1200E+02  0.1200E+02
     47.697  0.0000E+00  0.0000E+00  0.1200E+02  0.1200E+02
     47.873  0.0000E+00  0.0000E+00  0.1200E+02  0.1200E+02
     48.049  0.0000E+00  0.0000E+00  0.1200E+02  0.1200E+02
     48.04874960     -4.73046068  301      6.08772461      1.00000000
     -4.730  0.0000E+00  0.0000E+00  0.0000E+00  0.0000E+00  0.0000E+00  0.0000E+00  0.0000E+00  0.0000E+00  0.0000E+00  0.0000E+00  0.0000E+00  0.0000E+00  0.0000E+00  0.0000E+00  0.0000E+00  0.0000E+00  0.0000E+00  0.0000E+00
     -4.555  0.0000E+00  0.0000E+00  0.0000E+00  0.0000E+00  0.0000E+00  0.0000E+00  0.0000E+00  0.0000E+00  0.0000E+00  0.0000E+00  0.0000E+00  0.0000E+00  0.0000E+00  0.0000E+00  0.0000E+00  0.0000E+00  0.0000E+00  0.0000E+00
     -4.379  0.0000E+00  0.0000E+00  0.0000E+00  0.0000E+00  0.0000E+00  0.0000E+00  0.0000E+00  0.0000E+00  0.0000E+00  0.0000E+00  0.0000E+00  0.0000E+00  0.0000E+00  0.0000E+00  0.0000E+00  0.0000E+00  0.0000E+00  0.0000E+00
     -4.203  0.0000E+00  0.0000E+00  0.0000E+00  0.0000E+00  0.0000E+00  0.0000E+00  0.0000E+00  0.0000E+00  0.0000E+00  0.0000E+00  0.0000E+00  0.0000E+00  0.0000E+00  0.0000E+00  0.0000E+00  0.0000E+00  0.0000E+00  0.0000E+00
     -4.027  0.0000E+00  0.0000E+00  0.0000E+00  0.0000E+00  0.0000E+00  0.0000E+00  0.0000E+00  0.0000E+00  0.0000E+00  0.0000E+00  0.0000E+00  0.0000E+00  0.0000E+00  0.0000E+00  0.0000E+00  0.0000E+00  0.0000E+00  0.0000E+00
     -3.851  0.0000E+00  0.0000E+00  0.0000E+00  0.0000E+00  0.0000E+00  0.0000E+00  0.0000E+00  0.0000E+00  0.0000E+00  0.0000E+00  0.0000E+00  0.0000E+00  0.0000E+00  0.0000E+00  0.0000E+00  0.0000E+00  0.0000E+00  0.0000E+00
     -3.675  0.0000E+00  0.0000E+00  0.0000E+00  0.0000E+00  0.0000E+00  0.0000E+00  0.0000E+00  0.0000E+00  0.0000E+00  0.0000E+00  0.0000E+00  0.0000E+00  0.0000E+00  0.0000E+00  0.0000E+00  0.0000E+00  0.0000E+00  0.0000E+00
     -3.499  0.0000E+00  0.0000E+00  0.0000E+00  0.0000E+00  0.0000E+00  0.0000E+00  0.0000E+00  0.0000E+00  0.0000E+00  0.0000E+00  0.0000E+00  0.0000E+00  0.0000E+00  0.0000E+00  0.0000E+00  0.0000E+00  0.0000E+00  0.0000E+00
     -3.323  0.0000E+00  0.0000E+00  0.0000E+00  0.0000E+00  0.0000E+00  0.0000E+00  0.0000E+00  0.0000E+00  0.0000E+00  0.0000E+00  0.0000E+00  0.0000E+00  0.0000E+00  0.0000E+00  0.0000E+00  0.0000E+00  0.0000E+00  0.0000E+00
     -3.147  0.0000E+00  0.0000E+00  0.0000E+00  0.0000E+00  0.0000E+00  0.0000E+00  0.0000E+00  0.0000E+00  0.0000E+00  0.0000E+00  0.0000E+00  0.0000E+00  0.0000E+00  0.0000E+00  0.0000E+00  0.0000E+00  0.0000E+00  0.0000E+00
     -2.971  0.0000E+00  0.0000E+00  0.0000E+00  0.0000E+00  0.0000E+00  0.0000E+00  0.0000E+00  0.0000E+00  0.0000E+00  0.0000E+00  0.0000E+00  0.0000E+00  0.0000E+00  0.0000E+00  0.0000E+00  0.0000E+00  0.0000E+00  0.0000E+00
     -2.795  0.0000E+00  0.0000E+00  0.0000E+00  0.0000E+00  0.0000E+00  0.0000E+00  0.0000E+00  0.0000E+00  0.0000E+00  0.0000E+00  0.0000E+00  0.0000E+00  0.0000E+00  0.0000E+00  0.0000E+00  0.0000E+00  0.0000E+00  0.0000E+00
     -2.619  0.0000E+00  0.0000E+00  0.0000E+00  0.0000E+00  0.0000E+00  0.0000E+00  0.0000E+00  0.0000E+00  0.0000E+00  0.0000E+00  0.0000E+00  0.0000E+00  0.0000E+00  0.0000E+00  0.0000E+00  0.0000E+00  0.0000E+00  0.0000E+00
     -2.443  0.0000E+00  0.0000E+00  0.0000E+00  0.0000E+00  0.0000E+00  0.0000E+00  0.0000E+00  0.0000E+00  0.0000E+00  0.0000E+00  0.0000E+00  0.0000E+00  0.0000E+00  0.0000E+00  0.0000E+00  0.0000E+00  0.0000E+00  0.0000E+00
     -2.267  0.8453E-02  0.0000E+00  0.8717E-04  0.0000E+00  0.5912E-04  0.0000E+00  0.3716E-03  0.0000E+00  0.2645E-04  0.0000E+00  0.6965E-05  0.0000E+00  0.9570E-05  0.0000E+00  0.6647E-05  0.0000E+00  0.1094E-04  0.0000E+00
     -2.092  0.1263E-01  0.0000E+00  0.1892E-03  0.0000E+00  0.1186E-03  0.0000E+00  0.6617E-03  0.0000E+00  0.6419E-04  0.0000E+00  0.1888E-04  0.0000E+00  0.2402E-04  0.0000E+00  0.1440E-04  0.0000E+00  0.2736E-04  0.0000E+00
     -1.916  0.1602E-01  0.8312E-02  0.2938E-03  0.8562E-04  0.1675E-03  0.5781E-04  0.9840E-03  0.3637E-03  0.1114E-03  0.1844E-04  0.3576E-04  0.5105E-05  0.4424E-04  0.6586E-05  0.2231E-04  0.4926E-05  0.5271E-04  0.7958E-05
     -1.740  0.1861E-01  0.1241E-01  0.4011E-03  0.1864E-03  0.2057E-03  0.1165E-03  0.1339E-02  0.6464E-03  0.1682E-03  0.4450E-04  0.5760E-04  0.1321E-04  0.7024E-04  0.1628E-04  0.3037E-04  0.1056E-04  0.8698E-04  0.1921E-04
     -1.564  0.2286E-01  0.1571E-01  0.5968E-03  0.2897E-03  0.3053E-03  0.1650E-03  0.1860E-02  0.9594E-03  0.2618E-03  0.7676E-04  0.1188E-03  0.2416E-04  0.1120E-03  0.2972E-04  0.4980E-04  0.1613E-04  0.1413E-03  0.3623E-04
     -1.388  0.2665E-01  0.1823E-01  0.8264E-03  0.3957E-03  0.4470E-03  0.2031E-03  0.2379E-02  0.1303E-02  0.3883E-03  0.1152E-03  0.2309E-03  0.3795E-04  0.1698E-03  0.4692E-04  0.8654E-04  0.2164E-04  0.2160E-03  0.5904E-04
     -1.212  0.2912E-01  0.2216E-01  0.1063E-02  0.5812E-03  0.6121E-03  0.2952E-03  0.2842E-02  0.1795E-02  0.5409E-03  0.1760E-03  0.3876E-03  0.7398E-04  0.2417E-03  0.7310E-04  0.1389E-03  0.3404E-04  0.3086E-03  0.9380E-04
     -1.036  0.2839E-01  0.2582E-01  0.1283E-02  0.8051E-03  0.8232E-03  0.4319E-03  0.3318E-02  0.2296E-02  0.7691E-03  0.2560E-03  0.6263E-03  0.1407E-03  0.3801E-03  0.1077E-03  0.2385E-03  0.5725E-04  0.5216E-03  0.1403E-03
     -0.860  0.3068E-01  0.2819E-01  0.1499E-02  0.1036E-02  0.9925E-03  0.5913E-03  0.3900E-02  0.2739E-02  0.1139E-02  0.3496E-03  0.8096E-03  0.2333E-03  0.5913E-03  0.1488E-03  0.3351E-03  0.8971E-04  0.7153E-03  0.1966E-03
     -0.684  0.3310E-01  0.2701E-01  0.1723E-02  0.1250E-02  0.1169E-02  0.8016E-03  0.4550E-02  0.3146E-02  0.1581E-02  0.4671E-03  0.1025E-02  0.3792E-03  0.8502E-03  0.2164E-03  0.4536E-03  0.1500E-03  0.9418E-03  0.3206E-03
     -0.508  0.3565E-01  0.2892E-01  0.1955E-02  0.1456E-02  0.1353E-02  0.9604E-03  0.5265E-02  0.3664E-02  0.2097E-02  0.6672E-03  0.1271E-02  0.4805E-03  0.1157E-02  0.3202E-03  0.5942E-03  0.2046E-03  0.1201E-02  0.4320E-03
     -0.332  0.3834E-01  0.3091E-01  0.2195E-02  0.1668E-02  0.1544E-02  0.1125E-02  0.6048E-02  0.4238E-02  0.2685E-02  0.9030E-03  0.1549E-02  0.5970E-03  0.1511E-02  0.4451E-03  0.7567E-03  0.2702E-03  0.1493E-02  0.5606E-03
     -0.156  0.4116E-01  0.3300E-01  0.2443E-02  0.1887E-02  0.1742E-02  0.1295E-02  0.6897E-02  0.4866E-02  0.3347E-02  0.1175E-02  0.1859E-02  0.7287E-03  0.1913E-02  0.5910E-03  0.9412E-03  0.3467E-03  0.1819E-02  0.7064E-03
      0.020  0.4415E-01  0.3517E-01  0.2807E-02  0.2113E-02  0.2112E-02  0.1472E-02  0.7929E-02  0.5550E-02  0.4439E-02  0.1482E-02  0.2751E-02  0.8756E-03  0.2651E-02  0.7580E-03  0.1415E-02  0.4343E-03  0.2312E-02  0.8692E-03
      0.196  0.4866E-01  0.3744E-01  0.3338E-02  0.2345E-02  0.2674E-02  0.1653E-02  0.9437E-02  0.6289E-02  0.6378E-02  0.1825E-02  0.4432E-02  0.1038E-02  0.4066E-02  0.9461E-03  0.2082E-02  0.5328E-03  0.3268E-02  0.1049E-02
      0.372  0.5250E-01  0.3979E-01  0.3780E-02  0.2584E-02  0.3202E-02  0.1841E-02  0.1116E-01  0.7084E-02  0.8808E-02  0.2204E-02  0.6446E-02  0.1215E-02  0.5989E-02  0.1155E-02  0.2863E-02  0.6424E-03  0.4596E-02  0.1246E-02
      0.547  0.5561E-01  0.4161E-01  0.4031E-02  0.2943E-02  0.3557E-02  0.2250E-02  0.1318E-01  0.8050E-02  0.1278E-01  0.2954E-02  0.8918E-02  0.1889E-02  0.9140E-02  0.1633E-02  0.3724E-02  0.9675E-03  0.6439E-02  0.1595E-02
      0.723  0.6252E-01  0.4385E-01  0.4474E-02  0.3312E-02  0.3974E-02  0.2664E-02  0.1582E-01  0.9168E-02  0.2060E-01  0.3854E-02  0.1290E-01  0.2670E-02  0.1490E-01  0.2244E-02  0.4666E-02  0.1274E-02  0.8887E-02  0.2094E-02
      0.899  0.7084E-01  0.4537E-01  0.4931E-02  0.3599E-02  0.4441E-02  0.3043E-02  0.1883E-01  0.1033E-01  0.3194E-01  0.4896E-02  0.1843E-01  0.3551E-02  0.2337E-01  0.3005E-02  0.5758E-02  0.1609E-02  0.1197E-01  0.2731E-02
      1.075  0.1014E+00  0.4641E-01  0.5976E-02  0.3782E-02  0.5785E-02  0.3333E-02  0.2460E-01  0.1150E-01  0.8542E-01  0.6297E-02  0.5219E-01  0.4518E-02  0.6263E-01  0.4020E-02  0.7329E-02  0.1955E-02  0.2485E-01  0.3478E-02
      1.251  0.9733E-01  0.4871E-01  0.5926E-02  0.4046E-02  0.6748E-02  0.3649E-02  0.2830E-01  0.1285E-01  0.9009E-01  0.8259E-02  0.6109E-01  0.5682E-02  0.9748E-01  0.5357E-02  0.1075E-01  0.2319E-02  0.5316E-01  0.4321E-02
      1.427  0.1022E+00  0.5184E-01  0.6375E-02  0.4348E-02  0.7946E-02  0.3974E-02  0.4044E-01  0.1439E-01  0.1099E+00  0.1106E-01  0.7471E-01  0.7148E-02  0.1571E+00  0.7219E-02  0.1681E-01  0.2707E-02  0.9786E-01  0.5286E-02
      1.603  0.9407E-01  0.5531E-01  0.7450E-02  0.4657E-02  0.8770E-02  0.4315E-02  0.5117E-01  0.1606E-01  0.1283E+00  0.1454E-01  0.8540E-01  0.8892E-02  0.2644E+00  0.9528E-02  0.2929E-01  0.3136E-02  0.1549E+00  0.6378E-02
      1.779  0.7283E-01  0.5912E-01  0.7959E-02  0.4971E-02  0.8289E-02  0.4675E-02  0.5001E-01  0.1788E-01  0.1199E+00  0.1867E-01  0.8530E-01  0.1092E-01  0.2816E+00  0.1228E-01  0.3984E-01  0.3607E-02  0.1571E+00  0.7597E-02
      1.955  0.4002E-01  0.6326E-01  0.6538E-02  0.5291E-02  0.5961E-02  0.5051E-02  0.2626E-01  0.1984E-01  0.8490E-01  0.2347E-01  0.9877E-01  0.1322E-01  0.1276E+00  0.1548E-01  0.4888E-01  0.4120E-02  0.1069E+00  0.8941E-02
      2.131  0.2117E-01  0.8040E-01  0.5848E-02  0.6653E-02  0.3873E-02  0.6881E-02  0.1677E-01  0.2528E-01  0.5339E-01  0.4349E-01  0.8566E-01  0.3018E-01  0.7175E-01  0.2951E-01  0.4023E-01  0.5635E-02  0.9793E-01  0.1631E-01
      2.307  0.5781E-02  0.9404E-01  0.5675E-02  0.6870E-02  0.2166E-02  0.8237E-02  0.1136E-01  0.3204E-01  0.1805E-01  0.7072E-01  0.5290E-01  0.5429E-01  0.4990E-01  0.5160E-01  0.1496E-01  0.8670E-02  0.9809E-01  0.2623E-01
      2.483  0.1132E-02  0.8373E-01  0.1136E-01  0.6043E-02  0.4796E-02  0.7952E-02  0.8601E-02  0.3373E-01  0.2035E-01  0.7178E-01  0.2461E-01  0.5420E-01  0.8727E-01  0.5774E-01  0.4363E-01  0.1097E-01  0.1307E+00  0.2863E-01
      2.659  0.2046E-02  0.7805E-01  0.3234E-01  0.5705E-02  0.2166E-01  0.7743E-02  0.1866E-01  0.3544E-01  0.2817E+00  0.7353E-01  0.2519E+00  0.5720E-01  0.1553E+00  0.6427E-01  0.5913E+00  0.1396E-01  0.1930E+00  0.3246E-01
      2.835  0.4532E-02  0.6968E-01  0.2450E-01  0.5899E-02  0.1311E-01  0.7627E-02  0.1644E-01  0.3954E-01  0.1416E+00  0.7285E-01  0.2322E+00  0.5663E-01  0.1428E+00  0.1118E+00  0.4338E+00  0.1770E-01  0.1918E+00  0.8109E-01
      3.010  0.7052E-02  0.6897E-01  0.1597E-01  0.7273E-02  0.1525E-01  0.7933E-02  0.7232E-02  0.5740E-01  0.1567E+00  0.8197E-01  0.1033E+00  0.5998E-01  0.8667E-01  0.1945E+00  0.2282E+00  0.2453E-01  0.6598E-01  0.1562E+00
      3.186  0.1069E-01  0.4895E-01  0.2531E-01  0.8746E-02  0.2758E-01  0.8605E-02  0.1472E-01  0.3988E-01  0.1828E+00  0.7372E-01  0.1395E+00  0.7346E-01  0.6043E-01  0.1806E+00  0.1922E+00  0.3102E-01  0.6970E-01  0.1017E+00
      3.362  0.1707E-01  0.3122E-01  0.3748E-01  0.7932E-02  0.3613E-01  0.6468E-02  0.2699E-01  0.2462E-01  0.2508E+00  0.5145E-01  0.2577E+00  0.7106E-01  0.7133E-01  0.1027E+00  0.2171E+00  0.3194E-01  0.1149E+00  0.6943E-01
      3.538  0.2848E-01  0.1711E-01  0.6019E-01  0.7317E-02  0.4322E-01  0.4156E-02  0.5334E-01  0.1651E-01  0.4193E+00  0.3208E-01  0.4287E+00  0.6007E-01  0.9507E-01  0.5728E-01  0.3744E+00  0.2994E-01  0.2072E+00  0.6441E-01
      3.714  0.1603E-01  0.1114E-03  0.3550E-01  0.6259E-02  0.2680E-01  0.1052E-02  0.2459E-01  0.4913E-02  0.1727E+00  0.3646E-02  0.1933E+00  0.1322E-02  0.4066E-01  0.4815E-01  0.2469E+00  0.3919E-02  0.1113E+00  0.6632E-01
      3.890  0.8557E-02  0.2737E-03  0.2225E-01  0.1896E-01  0.1624E-01  0.9823E-02  0.1315E-01  0.1016E-01  0.6264E-01  0.6766E-01  0.9406E-01  0.1499E-01  0.1801E-01  0.6874E-01  0.9935E-01  0.7978E-01  0.6901E-01  0.1057E+00
      4.066  0.5843E-02  0.1085E-02  0.1737E-01  0.4068E-01  0.1266E-01  0.2828E-01  0.9768E-02  0.2051E-01  0.5385E-01  0.2421E+00  0.8672E-01  0.1186E+00  0.1605E-01  0.1281E+00  0.8951E-01  0.3854E+00  0.5577E-01  0.1428E+00