    1    1    1    2
  0.1097600E+02  0.2424871E-09  0.2424871E-09  0.2424871E-09  0.5000000E-15
  1.000000000000000E-004
  CAR 
 Fe BCC                                  
      8     26     12
 
  0.6250000E-01  0.6250000E-01  0.6250000E-01  0.1562500E-01
    1       -1.697074     -1.335481   1.000000   1.000000
    2        3.478163      5.150080   1.000000   1.000000
    3        3.478163      5.150080   1.000000   1.000000
    4        4.342015      6.093715   1.000000   0.291037
    5        5.055354      7.229421   1.000000   0.000000
    6        5.055354      7.229421   1.002952   0.000000
    7       27.720536     28.191202   0.000000   0.000000
    8       27.720536     28.191202   0.000000   0.000000
    9       31.992862     32.300093   0.000000   0.000000
   10       32.166807     32.793677   0.000000   0.000000
   11       37.540650     37.992918   0.000000   0.000000
   12       37.540650     37.992918   0.000000   0.000000
 
  0.1875000E+00  0.6250000E-01  0.6250000E-01  0.4687500E-01
    1       -0.063327      0.373207   1.000000   1.000000
    2        3.034376      4.639411   1.000000   1.000000
    3        3.261136      4.827549   1.000000   1.000000
    4        4.977396      7.093354   1.000000  -0.014448
    5        5.190837      7.228403   1.001447   0.000000
    6        5.434113      7.394409   0.875919   0.000000
    7       22.326020     23.069131   0.000000   0.000000
    8       25.375642     25.911863   0.000000   0.000000
    9       27.996879     28.726182   0.000000   0.000000
   10       32.592965     32.891682   0.000000   0.000000
   11       37.037866     37.709860   0.000000   0.000000
   12       38.151511     38.584700   0.000000   0.000000
 
  0.3125000E+00  0.6250000E-01  0.6250000E-01  0.4687500E-01
    1        1.107230      2.033110   1.000000   1.000000
    2        2.654708      4.202923   1.000000   1.000000
    3        4.040609      5.134161   1.000000   1.000000
    4        5.122008      7.219636   1.000000   0.000000
    5        5.299999      7.537493   1.034546   0.000000
    6        6.917716      8.626813   0.001596   0.000000
    7       16.842495     17.823365   0.000000   0.000000
    8       23.631535     24.138989   0.000000   0.000000
    9       25.561831     26.227770   0.000000   0.000000
   10       32.147817     32.634932   0.000000   0.000000
   11       36.354597     37.031350   0.000000   0.000000
   12       41.511954     41.894669   0.000000   0.000000
 
  0.4375000E+00  0.6250000E-01  0.6250000E-01  0.2343750E-01
    1        1.165060      2.358521   1.000000   1.000000
    2        2.509217      4.036315   1.000000   1.000000
    3        5.089478      6.073889   1.000000   1.000000
    4        5.193474      7.298570   1.000000   0.000000
    5        5.345197      7.599063   1.075466   0.000000
    6        8.254818      9.599291  -0.005010   0.000000
    7       13.763907     15.009906   0.000000   0.000000
    8       22.985515     23.469858   0.000000   0.000000
    9       24.649016     25.276095   0.000000   0.000000
   10       31.938896     32.484385   0.000000   0.000000
   11       36.273573     36.975128   0.000000   0.000000
   12       41.324634     41.618236   0.000000   0.000000
 
 -0.6250000E-01  0.6250000E-01  0.6250000E-01  0.1171875E-01
    1       -2.331406     -1.977391   1.000000   1.000000
    2        3.698104      5.400511   1.000000   1.000000
    3        3.698104      5.400511   1.000000   1.000000
    4        3.793578      5.512738   1.000000   1.189769
    5        4.973984      7.137014   1.000000   0.000000
    6        5.192944      7.400840   1.000000   0.000000
    7       29.573122     29.852085   0.000000   0.000000
    8       30.943877     31.197705   0.000000   0.000000
    9       30.943877     31.197705   0.000000   0.000000
   10       34.381397     34.892599   0.000000   0.000000
   11       36.663763     37.415458   0.000000   0.000000
   12       36.663763     37.415458   0.000000   0.000000
 
  0.1875000E+00  0.1875000E+00  0.6250000E-01  0.4687500E-01
    1        1.458572      2.138938   1.000000   1.000000
    2        2.734245      4.244460   1.000000   1.000000
    3        2.934834      4.379959   1.000000   1.000000
    4        5.063347      7.186423   1.000000   0.000000
    5        5.330223      7.543473   1.001122   0.000000
    6        7.141901      8.838719  -0.017497   0.000000
    7       19.768998     20.602472   0.000000   0.000000
    8       20.634837     21.353180   0.000000   0.000000
    9       24.626495     25.273662   0.000000   0.000000
   10       34.569882     34.858209   0.000000   0.000000
   11       38.447088     38.947902   0.000000   0.000000
   12       40.898713     41.396026   0.000000   0.000000
 
  0.3125000E+00  0.1875000E+00  0.6250000E-01  0.9375000E-01
    1        1.825774      3.037710   1.000000   1.000000
    2        2.548833      4.014523   1.000000   1.000000
    3        3.603430      4.788610   1.000000   1.000000
    4        5.213318      7.343197   1.000000   0.000000
    5        5.426263      7.626446   1.010412   0.000000
    6        9.624536     10.959127  -0.003232   0.000000
    7       15.129026     16.161658   0.000000   0.000000
    8       19.009780     19.752181   0.000000   0.000000
    9       23.291564     23.917572   0.000000   0.000000
   10       34.987192     35.370663   0.000000   0.000000
   11       39.426667     39.807350   0.000000   0.000000
   12       41.578889     42.155753   0.000000   0.000000
 
 -0.1875000E+00  0.1875000E+00  0.6250000E-01  0.4687500E-01
    1       -1.106288     -0.728614   1.000000   1.000000
    2        3.407806      5.066006   1.000000   1.000000
    3        3.619106      5.275743   1.000000   1.000000
    4        4.456207      6.225496   1.000000   0.100531
    5        4.702062      6.781764   1.000000   0.000000
    6        5.300030      7.517069   1.008565   0.000000
    7       25.202687     25.831255   0.000000   0.000000
    8       28.564947     28.952540   0.000000   0.000000
    9       29.542963     30.112104   0.000000   0.000000
   10       33.736268     34.264205   0.000000   0.000000
   11       33.925523     34.567006   0.000000   0.000000
   12       35.516674     36.038355   0.000000   0.000000
 
  0.3125000E+00  0.3125000E+00  0.6250000E-01  0.1562500E-01
    1        2.161096      3.543617   1.000000   1.000000
    2        2.931221      4.241612   1.000000   1.000000
    3        2.931221      4.241612   1.000000   1.000000
    4        5.364124      7.524142   1.000000   0.000000
    5        5.364124      7.524143   1.001022   0.000000
    6       13.198198     14.270545   0.000000   0.000000
    7       13.198198     14.270545   0.000000   0.000000
    8       15.837168     16.704203   0.000000   0.000000
    9       22.814325     23.463761   0.000000   0.000000
   10       37.467317     37.811525   0.000000   0.000000
   11       37.467317     37.811525   0.000000   0.000000
   12       44.947344     45.649695   0.000000   0.000000
 
 -0.3125000E+00  0.3125000E+00  0.6250000E-01  0.4687500E-01
    1        0.568282      1.189916   1.000000   1.000000
    2        2.977759      4.576141   1.000000   1.000000
    3        3.670834      5.062943   1.000000   1.000000
    4        4.897393      6.896690   1.000000  -0.011549
    5        5.482552      7.416891   1.016594   0.000000
    6        5.548471      7.655728   0.695265   0.000000
    7       19.422416     20.299202   0.000000   0.000000
    8       26.102634     26.475279   0.000000   0.000000
    9       27.456854     28.157222   0.000000   0.000000
   10       31.981162     32.612747   0.000000   0.000000
   11       33.984935     34.613348   0.000000   0.000000
   12       36.880031     37.347835   0.000000   0.000000
 
 -0.1875000E+00  0.3125000E+00  0.6250000E-01  0.4687500E-01
    1        0.381195      0.868137   1.000000   1.000000
    2        3.189190      4.822245   1.000000   1.000000
    3        3.388667      4.972588   1.000000   1.000578
    4        4.547416      6.527570   1.000000  -0.014571
    5        5.273103      7.138490   1.003071   0.000000
    6        5.671810      7.786901   0.725019   0.000000
    7       22.386238     23.163032   0.000000   0.000000
    8       23.439633     24.106052   0.000000   0.000000
    9       29.935853     30.433689   0.000000   0.000000
   10       30.325815     30.886558   0.000000   0.000000
   11       34.139423     34.705399   0.000000   0.000000
   12       38.837768     39.317177   0.000000   0.000000
 
 -0.4375000E+00  0.4375000E+00  0.6250000E-01  0.4687500E-01
    1        1.037857      2.170895   1.000000   1.000000
    2        2.687041      4.247663   1.000000   1.000000
    3        4.533354      5.846622   1.000000   1.000000
    4        5.090795      7.127954   1.000000   0.000000
    5        6.431599      8.173296   0.347677   0.000000
    6        6.715881      8.397939   0.005138   0.000000
    7       14.660564     15.821247   0.000000   0.000000
    8       24.683943     25.023131   0.000000   0.000000
    9       25.789805     26.439509   0.000000   0.000000
   10       31.264259     31.954583   0.000000   0.000000
   11       34.314597     35.018401   0.000000   0.000000
   12       38.492356     38.873931   0.000000   0.000000
 
 -0.3125000E+00  0.4375000E+00  0.6250000E-01  0.9375000E-01
    1        1.472947      2.446508   1.000000   1.000000
    2        2.852090      4.387127   1.000000   1.000000
    3        3.461761      4.870939   1.000000   1.001164
    4        4.863749      6.827464   1.000000  -0.001866
    5        5.704174      7.746035   1.017875   0.000000
    6        7.414708      9.041685  -0.037312   0.000000
    7       17.212971     18.166985   0.000000   0.000000
    8       21.144050     21.856249   0.000000   0.000000
    9       27.773514     28.262704   0.000000   0.000000
   10       31.033559     31.622555   0.000000   0.000000
   11       34.733264     35.263598   0.000000   0.000000
   12       39.424811     40.001473   0.000000   0.000000
 
 -0.4375000E+00 -0.4375000E+00  0.6250000E-01  0.4687500E-01
    1        1.513326      2.773628   1.000000   1.000000
    2        2.833043      4.379395   1.000000   1.000000
    3        3.663449      5.032535   1.000000   1.000946
    4        4.983330      6.983427   1.000000   0.000000
    5        6.061640      8.031065   0.755155   0.000000
    6        9.391977     10.600281  -0.001767   0.000000
    7       13.847590     15.046369   0.000000   0.000000
    8       20.425286     21.123783   0.000000   0.000000
    9       26.899051     27.362349   0.000000   0.000000
   10       31.420112     32.083532   0.000000   0.000000
   11       35.618610     36.014609   0.000000   0.000000
   12       38.731723     39.371392   0.000000   0.000000
 
 -0.3125000E+00 -0.4375000E+00  0.6250000E-01  0.4687500E-01
    1        2.242479      3.540243   1.000000   1.000000
    2        2.537718      3.992722   1.000000   1.000000
    3        3.106705      4.551409   1.000000   1.002516
    4        5.180914      7.152798   1.000000   0.000000
    5        5.669529      7.672309   1.060965   0.000000
    6       10.711646     11.956861  -0.000457   0.000000
    7       15.201433     16.237671   0.000000   0.000000
    8       16.633658     17.455425   0.000000   0.000000
    9       28.243923     28.808943   0.000000   0.000000
   10       31.358942     31.841783   0.000000   0.000000
   11       33.618329     34.099424   0.000000   0.000000
   12       41.187141     41.985225   0.000000   0.000000
 
  0.1875000E+00  0.1875000E+00  0.1875000E+00  0.1562500E-01
    1        2.529225      3.614529   1.000000   1.000000
    2        2.529225      3.954624   1.000000   1.000000
    3        2.685502      3.954624   1.000000   1.000000
    4        5.313946      7.537348   1.000000   0.000000
    5        5.313946      7.537348   1.000000   0.000000
    6        9.637350     11.046306  -0.004205   0.000000
    7       18.092250     18.942774   0.000000   0.000000
    8       18.092250     18.942774   0.000000   0.000000
    9       19.559848     20.207992   0.000000   0.000000
   10       39.323641     39.463293   0.000000   0.000000
   11       42.160706     42.571390   0.000000   0.000000
   12       42.160706     42.571390   0.000000   0.000000
 
  0.3125000E+00  0.1875000E+00  0.1875000E+00  0.2343750E-01
    1        2.400821      3.690454   1.000000   1.000000
    2        2.484020      3.877865   1.000000   1.000000
    3        3.174396      4.405948   1.000000   1.000000
    4        5.349736      7.574295   1.000000   0.000000
    5        5.372931      7.633063   1.000000   0.000000
    6       12.468107     13.544469   0.000000   0.000000
    7       14.401296     15.434517   0.000000   0.000000
    8       17.514707     18.367687   0.000000   0.000000
    9       18.592909     19.254979   0.000000   0.000000
   10       40.433719     40.680525   0.000000   0.000000
   11       43.921235     44.235886   0.000000   0.000000
   12       44.439676     44.953410   0.000000   0.000000
 
 -0.1875000E+00  0.1875000E+00  0.1875000E+00  0.1171875E-01
    1       -0.033500      0.396497   1.000000   1.000000
    2        3.850648      5.521178   1.000000   1.000000
    3        3.856104      5.521179   1.000000   1.000236
    4        3.856104      5.788929   1.000000   0.610096
    5        4.470982      6.249268   1.000000   0.000000
    6        5.681855      7.866174   0.863334   0.000000
    7       25.263240     25.893620   0.000000   0.000000
    8       26.420992     27.133197   0.000000   0.000000
    9       26.420992     27.133197   0.000000   0.000000
   10       28.394843     28.861725   0.000000   0.000000
   11       37.965773     38.404138   0.000000   0.000000
   12       37.965773     38.404138   0.000000   0.000000
 
 -0.3125000E+00  0.3125000E+00  0.1875000E+00  0.4687500E-01
    1        1.316202      2.045788   1.000000   1.000000
    2        3.003014      4.679732   1.000000   1.000000
    3        3.704793      5.346458   1.000000   1.007605
    4        4.434368      6.206884   1.000000   0.020849
    5        5.421896      7.276865   1.042384   0.000000
    6        6.527868      8.398593   0.076924   0.000000
    7       20.278725     21.124572   0.000000   0.000000
    8       23.766142     24.497084   0.000000   0.000000
    9       24.877330     25.501331   0.000000   0.000000
   10       28.964913     29.510831   0.000000   0.000000
   11       37.011922     37.603173   0.000000   0.000000
   12       38.844187     39.375536   0.000000   0.000000
 
 -0.4375000E+00  0.4375000E+00  0.1875000E+00  0.4687500E-01
    1        1.626895      2.896771   1.000000   1.000000
    2        2.917907      4.366639   1.000000   1.000000
    3        3.490357      5.105309   1.000000   1.020557
    4        4.681167      6.536748   1.000000   0.000000
    5        6.343182      8.299654   0.198418   0.000000
    6        8.985861     10.233418  -0.010628   0.000000
    7       15.147267     16.201018   0.000000   0.000000
    8       22.092366     22.774384   0.000000   0.000000
    9       24.021511     24.654307   0.000000   0.000000
   10       31.463086     31.971705   0.000000   0.000000
   11       36.062094     36.681174   0.000000   0.000000
   12       36.861844     37.514464   0.000000   0.000000
 
 -0.3125000E+00  0.4375000E+00  0.1875000E+00  0.4687500E-01
    1        1.966684      3.114751   1.000000   1.000000
    2        2.327323      3.926201   1.000000   1.000000
    3        3.794011      5.426522   1.000000   0.994901
    4        4.855928      6.646129   1.000000  -0.001801
    5        5.885856      7.802600   1.009198   0.000000
    6        8.899981     10.250248  -0.013408   0.000000
    7       18.078629     19.008682   0.000000   0.000000
    8       18.728209     19.475706   0.000000   0.000000
    9       26.327792     27.009518   0.000000   0.000000
   10       27.936571     28.481828   0.000000   0.000000
   11       35.750723     36.361618   0.000000   0.000000
   12       38.884786     39.610497   0.000000   0.000000
 
 -0.4375000E+00 -0.4375000E+00  0.1875000E+00  0.4687500E-01
    1        1.928736      3.387720   1.000000   1.000000
    2        2.332866      3.790891   1.000000   1.000000
    3        3.579086      5.157270   1.000000   1.016707
    4        5.194295      7.026254   1.000000   0.000000
    5        6.133975      8.063884   0.408301   0.000000
    6       11.920172     12.962135   0.000000   0.000000
    7       14.260156     15.298585   0.000000   0.000000
    8       17.699624     18.480346   0.000000   0.000000
    9       26.349245     26.994556   0.000000   0.000000
   10       29.522449     30.079003   0.000000   0.000000
   11       33.321204     33.987506   0.000000   0.000000
   12       37.848453     38.571420   0.000000   0.000000
 
 -0.3125000E+00  0.3125000E+00  0.3125000E+00  0.1171875E-01
    1        1.742162      2.850568   1.000000   1.000000
    2        2.285960      3.958993   1.000000   1.000000
    3        4.685500      6.386430   1.000000   0.536509
    4        4.685501      6.386430   1.000000  -0.003891
    5        5.461379      7.332650   1.180838   0.000000
    6        8.253357      9.636446  -0.019194   0.000000
    7       20.738958     21.447238   0.000000   0.000000
    8       20.738958     21.447238   0.000000   0.000000
    9       23.011877     23.954123   0.000000   0.000000
   10       25.190948     25.798525   0.000000   0.000000
   11       37.312959     38.043857   0.000000   0.000000
   12       41.904373     42.491450   0.000000   0.000000
 
 -0.4375000E+00  0.4375000E+00  0.3125000E+00  0.4687500E-01
    1        1.647483      3.088921   1.000000   1.000000
    2        1.790593      3.316576   1.000000   1.000000
    3        4.836551      6.569937   1.000000   0.249202
    4        5.142651      6.890148   1.000000   0.000000
    5        6.220983      8.164431   0.120546   0.000000
    6       11.395737     12.373633   0.000000   0.000000
    7       16.272519     17.092251   0.000000   0.000000
    8       18.843753     19.476886   0.000000   0.000000
    9       23.225521     24.128746   0.000000   0.000000
   10       26.140637     26.833457   0.000000   0.000000
   11       32.659657     33.437785   0.000000   0.000000
   12       41.401989     41.954206   0.000000   0.000000
 
 -0.4375000E+00 -0.4375000E+00  0.3125000E+00  0.1562500E-01
    1        1.499725      3.005657   1.000000   1.000000
    2        1.499725      3.005657   1.000000   1.000000
    3        4.949780      6.667257   1.000000   0.114975
    4        6.048782      7.949574   1.000000   0.000000
    5        6.048782      7.949574   0.414528   0.000000
    6       14.835282     15.627688   0.000000   0.000000
    7       14.835282     15.627688   0.000000   0.000000
    8       16.022742     16.696428   0.000000   0.000000
    9       24.679661     25.500946   0.000000   0.000000
   10       24.679661     25.500946   0.000000   0.000000
   11       30.180225     30.986459   0.000000   0.000000
   12       41.982379     42.524636   0.000000   0.000000
 
 -0.4375000E+00  0.4375000E+00  0.4375000E+00  0.1171875E-01
    1        1.219580      2.705777   1.000000   1.000000
    2        1.219723      2.742635   1.000000   1.000000
    3        6.003464      7.892817   1.000000  -0.032831
    4        6.003464      7.892817   1.000000   0.000000
    5        6.183515      8.127621   0.013012   0.000000
    6       14.188006     14.843314   0.000000   0.000000
    7       16.727080     17.236602   0.000000   0.000000
    8       16.727080     17.236602   0.000000   0.000000
    9       22.182674     23.295241   0.000000   0.000000
   10       23.360077     24.303510   0.000000   0.000000
   11       28.653075     29.482090   0.000000   0.000000
   12       45.103248     45.549261   0.000000   0.000000
