       N       E                     dE             d eps       ncg     rms          rms(c)
DAV:   1     0.184850078656E+02    0.18485E+02   -0.36226E+03  1344   0.790E+02
DAV:   2    -0.923791893609E+01   -0.27723E+02   -0.25082E+02  1296   0.124E+02
DAV:   3    -0.981665175954E+01   -0.57873E+00   -0.57571E+00  1496   0.206E+01
DAV:   4    -0.981885979610E+01   -0.22080E-02   -0.22071E-02  1372   0.115E+00
DAV:   5    -0.981887403050E+01   -0.14234E-04   -0.14231E-04  1476   0.958E-02    0.138E+01
DAV:   6    -0.926026945532E+01    0.55860E+00   -0.96447E+00  1392   0.432E+01    0.509E+00
DAV:   7    -0.921890564957E+01    0.41364E-01   -0.46951E-01  1460   0.938E+00    0.290E+00
DAV:   8    -0.920709678230E+01    0.11809E-01   -0.43734E-03  1536   0.420E-01    0.121E+00
DAV:   9    -0.919772306132E+01    0.93737E-02   -0.70837E-03  1724   0.466E-01    0.234E-01
DAV:  10    -0.919781722343E+01   -0.94162E-04   -0.86071E-05  1504   0.136E-01    0.119E-01
DAV:  11    -0.919801973313E+01   -0.20251E-03   -0.14349E-04  1636   0.136E-01    0.337E-02
DAV:  12    -0.919802913986E+01   -0.94067E-05   -0.32740E-06  1004   0.123E-02    0.276E-02
DAV:  13    -0.919800682552E+01    0.22314E-04   -0.23293E-06   696   0.138E-02    0.686E-03
DAV:  14    -0.919800252009E+01    0.43054E-05   -0.12629E-07   660   0.446E-03    0.139E-03
DAV:  15    -0.919800073087E+01    0.17892E-05   -0.14957E-08   652   0.135E-03    0.507E-04
DAV:  16    -0.919800059262E+01    0.13825E-06   -0.21055E-09   652   0.432E-04
   1 F= -.91980006E+01 E0= -.91980006E+01  d E =0.000000E+00  mag=     2.0705
