PROCAR lm decomposed
# of k-points:   26         # of bands:  12         # of ions:   1

 k-point    1 :    0.06250000 0.06250000 0.06250000     weight = 0.01562500

band   1 # energy   -1.69707445 # occ.  1.00000000
 
ion      s     py     pz     px    dxy    dyz    dz2    dxz    dx2    tot
  1  0.689  0.023  0.023  0.023  0.003  0.003  0.000  0.003  0.000  0.764
 
band   2 # energy    3.47816264 # occ.  1.00000000
 
ion      s     py     pz     px    dxy    dyz    dz2    dxz    dx2    tot
  1  0.000  0.001  0.002  0.000  0.537  0.057  0.019  0.354  0.003  0.974
 
band   3 # energy    3.47816264 # occ.  1.00000000
 
ion      s     py     pz     px    dxy    dyz    dz2    dxz    dx2    tot
  1  0.000  0.001  0.000  0.002  0.095  0.575  0.003  0.278  0.019  0.974
 
band   4 # energy    4.34201521 # occ.  1.00000000
 
ion      s     py     pz     px    dxy    dyz    dz2    dxz    dx2    tot
  1  0.002  0.004  0.004  0.004  0.322  0.322  0.000  0.322  0.000  0.979
 
band   5 # energy    5.05535440 # occ.  1.00000000
 
ion      s     py     pz     px    dxy    dyz    dz2    dxz    dx2    tot
  1  0.000  0.000  0.000  0.000  0.017  0.003  0.936  0.005  0.007  0.969
 
band   6 # energy    5.05535440 # occ.  1.00295195
 
ion      s     py     pz     px    dxy    dyz    dz2    dxz    dx2    tot
  1  0.000  0.000  0.000  0.000  0.000  0.014  0.007  0.012  0.936  0.969
 
band   7 # energy   27.72053568 # occ.  0.00000000
 
ion      s     py     pz     px    dxy    dyz    dz2    dxz    dx2    tot
  1  0.000  0.068  0.012  0.023  0.033  0.063  0.035  0.188  0.167  0.591
 
band   8 # energy   27.72053568 # occ.  0.00000000
 
ion      s     py     pz     px    dxy    dyz    dz2    dxz    dx2    tot
  1  0.000  0.001  0.057  0.046  0.157  0.126  0.167  0.002  0.035  0.591
 
band   9 # energy   31.99286182 # occ.  0.00000000
 
ion      s     py     pz     px    dxy    dyz    dz2    dxz    dx2    tot
  1  0.077  0.168  0.168  0.168  0.167  0.167  0.000  0.167  0.000  1.081
 
band  10 # energy   32.16680691 # occ.  0.00000000
 
ion      s     py     pz     px    dxy    dyz    dz2    dxz    dx2    tot
  1  0.000  0.000  0.000  0.000  0.000  0.000  0.000  0.000  0.000  0.000
 
band  11 # energy   37.54064988 # occ.  0.00000000
 
ion      s     py     pz     px    dxy    dyz    dz2    dxz    dx2    tot
  1  0.000  0.163  0.098  0.023  0.043  0.010  0.035  0.071  0.033  0.477
 
band  12 # energy   37.54064988 # occ.  0.00000000
 
ion      s     py     pz     px    dxy    dyz    dz2    dxz    dx2    tot
  1  0.000  0.026  0.091  0.167  0.040  0.073  0.033  0.012  0.035  0.477
 

 k-point    2 :    0.18750000 0.06250000 0.06250000     weight = 0.04687500

band   1 # energy   -0.06332708 # occ.  1.00000000
 
ion      s     py     pz     px    dxy    dyz    dz2    dxz    dx2    tot
  1  0.530  0.068  0.068  0.020  0.007  0.067  0.004  0.007  0.011  0.780
 
band   2 # energy    3.03437583 # occ.  1.00000000
 
ion      s     py     pz     px    dxy    dyz    dz2    dxz    dx2    tot
  1  0.000  0.003  0.003  0.000  0.468  0.000  0.018  0.468  0.006  0.965
 
band   3 # energy    3.26113584 # occ.  1.00000000
 
ion      s     py     pz     px    dxy    dyz    dz2    dxz    dx2    tot
  1  0.013  0.021  0.021  0.003  0.092  0.558  0.036  0.092  0.108  0.942
 
band   4 # energy    4.97739613 # occ.  1.00000000
 
ion      s     py     pz     px    dxy    dyz    dz2    dxz    dx2    tot
  1  0.001  0.000  0.000  0.000  0.015  0.144  0.199  0.015  0.597  0.972
 
band   5 # energy    5.19083672 # occ.  1.00144669
 
ion      s     py     pz     px    dxy    dyz    dz2    dxz    dx2    tot
  1  0.000  0.000  0.000  0.000  0.013  0.000  0.711  0.013  0.237  0.976
 
band   6 # energy    5.43411253 # occ.  0.87591950
 
ion      s     py     pz     px    dxy    dyz    dz2    dxz    dx2    tot
  1  0.014  0.013  0.013  0.012  0.371  0.179  0.000  0.371  0.000  0.971
 
band   7 # energy   22.32602030 # occ.  0.00000000
 
ion      s     py     pz     px    dxy    dyz    dz2    dxz    dx2    tot
  1  0.058  0.114  0.114  0.025  0.009  0.327  0.039  0.009  0.118  0.816
 
band   8 # energy   25.37564196 # occ.  0.00000000
 
ion      s     py     pz     px    dxy    dyz    dz2    dxz    dx2    tot
  1  0.000  0.102  0.102  0.000  0.164  0.000  0.086  0.164  0.029  0.647
 
band   9 # energy   27.99687903 # occ.  0.00000000
 
ion      s     py     pz     px    dxy    dyz    dz2    dxz    dx2    tot
  1  0.128  0.059  0.059  0.387  0.119  0.003  0.010  0.119  0.031  0.915
 
band  10 # energy   32.59296511 # occ.  0.00000000
 
ion      s     py     pz     px    dxy    dyz    dz2    dxz    dx2    tot
  1  0.000  0.002  0.002  0.000  0.188  0.000  0.019  0.188  0.006  0.406
 
band  11 # energy   37.03786607 # occ.  0.00000000
 
ion      s     py     pz     px    dxy    dyz    dz2    dxz    dx2    tot
  1  0.035  0.053  0.053  0.149  0.072  0.105  0.117  0.072  0.352  1.008
 
band  12 # energy   38.15151116 # occ.  0.00000000
 
ion      s     py     pz     px    dxy    dyz    dz2    dxz    dx2    tot
  1  0.000  0.101  0.101  0.000  0.163  0.000  0.003  0.163  0.001  0.531
 

 k-point    3 :    0.31250000 0.06250000 0.06250000     weight = 0.04687500

band   1 # energy    1.10723043 # occ.  1.00000000
 
ion      s     py     pz     px    dxy    dyz    dz2    dxz    dx2    tot
  1  0.222  0.026  0.026  0.018  0.001  0.403  0.041  0.001  0.124  0.863
 
band   2 # energy    2.65470755 # occ.  1.00000000
 
ion      s     py     pz     px    dxy    dyz    dz2    dxz    dx2    tot
  1  0.000  0.004  0.004  0.000  0.473  0.000  0.006  0.473  0.002  0.961
 
band   3 # energy    4.04060913 # occ.  1.00000000
 
ion      s     py     pz     px    dxy    dyz    dz2    dxz    dx2    tot
  1  0.082  0.133  0.133  0.000  0.151  0.102  0.028  0.151  0.084  0.864
 
band   4 # energy    5.12200809 # occ.  1.00000000
 
ion      s     py     pz     px    dxy    dyz    dz2    dxz    dx2    tot
  1  0.003  0.002  0.002  0.001  0.014  0.281  0.166  0.014  0.498  0.980
 
band   5 # energy    5.29999879 # occ.  1.03454570
 
ion      s     py     pz     px    dxy    dyz    dz2    dxz    dx2    tot
  1  0.000  0.000  0.000  0.000  0.004  0.000  0.730  0.004  0.243  0.982
 
band   6 # energy    6.91771640 # occ.  0.00159562
 
ion      s     py     pz     px    dxy    dyz    dz2    dxz    dx2    tot
  1  0.044  0.061  0.061  0.010  0.327  0.107  0.001  0.327  0.002  0.940
 
band   7 # energy   16.84249510 # occ.  0.00000000
 
ion      s     py     pz     px    dxy    dyz    dz2    dxz    dx2    tot
  1  0.224  0.105  0.105  0.014  0.005  0.325  0.025  0.005  0.074  0.882
 
band   8 # energy   23.63153546 # occ.  0.00000000
 
ion      s     py     pz     px    dxy    dyz    dz2    dxz    dx2    tot
  1  0.000  0.131  0.131  0.000  0.149  0.000  0.024  0.149  0.008  0.594
 
band   9 # energy   25.56183139 # occ.  0.00000000
 
ion      s     py     pz     px    dxy    dyz    dz2    dxz    dx2    tot
  1  0.127  0.010  0.010  0.538  0.040  0.012  0.013  0.040  0.040  0.830
 
band  10 # energy   32.14781690 # occ.  0.00000000
 
ion      s     py     pz     px    dxy    dyz    dz2    dxz    dx2    tot
  1  0.000  0.005  0.005  0.000  0.405  0.000  0.007  0.405  0.002  0.829
 
band  11 # energy   36.35459748 # occ.  0.00000000
 
ion      s     py     pz     px    dxy    dyz    dz2    dxz    dx2    tot
  1  0.103  0.022  0.022  0.124  0.018  0.002  0.172  0.018  0.515  0.997
 
band  12 # energy   41.51195416 # occ.  0.00000000
 
ion      s     py     pz     px    dxy    dyz    dz2    dxz    dx2    tot
  1  0.049  0.002  0.026  0.009  0.001  0.291  0.006  0.016  0.007  0.407
 

 k-point    4 :    0.43750000 0.06250000 0.06250000     weight = 0.02343750

band   1 # energy    1.16506004 # occ.  1.00000000
 
ion      s     py     pz     px    dxy    dyz    dz2    dxz    dx2    tot
  1  0.127  0.000  0.000  0.017  0.000  0.502  0.062  0.000  0.186  0.894
 
band   2 # energy    2.50921706 # occ.  1.00000000
 
ion      s     py     pz     px    dxy    dyz    dz2    dxz    dx2    tot
  1  0.000  0.004  0.004  0.000  0.476  0.000  0.000  0.476  0.000  0.960
 
band   3 # energy    5.08947789 # occ.  1.00000000
 
ion      s     py     pz     px    dxy    dyz    dz2    dxz    dx2    tot
  1  0.000  0.163  0.163  0.000  0.275  0.000  0.000  0.275  0.000  0.875
 
band   4 # energy    5.19347353 # occ.  1.00000000
 
ion      s     py     pz     px    dxy    dyz    dz2    dxz    dx2    tot
  1  0.011  0.000  0.000  0.001  0.000  0.287  0.171  0.000  0.512  0.982
 
band   5 # energy    5.34519667 # occ.  1.07546635
 
ion      s     py     pz     px    dxy    dyz    dz2    dxz    dx2    tot
  1  0.000  0.000  0.000  0.000  0.000  0.000  0.739  0.000  0.246  0.985
 
band   6 # energy    8.25481774 # occ. -0.00501000
 
ion      s     py     pz     px    dxy    dyz    dz2    dxz    dx2    tot
  1  0.000  0.200  0.200  0.000  0.230  0.000  0.000  0.230  0.000  0.860
 
band   7 # energy   13.76390723 # occ.  0.00000000
 
ion      s     py     pz     px    dxy    dyz    dz2    dxz    dx2    tot
  1  0.422  0.000  0.000  0.018  0.000  0.398  0.023  0.000  0.070  0.931
 
band   8 # energy   22.98551469 # occ.  0.00000000
 
ion      s     py     pz     px    dxy    dyz    dz2    dxz    dx2    tot
  1  0.000  0.141  0.141  0.000  0.142  0.000  0.000  0.142  0.000  0.565
 
band   9 # energy   24.64901562 # occ.  0.00000000
 
ion      s     py     pz     px    dxy    dyz    dz2    dxz    dx2    tot
  1  0.124  0.000  0.000  0.595  0.000  0.023  0.012  0.000  0.037  0.792
 
band  10 # energy   31.93889584 # occ.  0.00000000
 
ion      s     py     pz     px    dxy    dyz    dz2    dxz    dx2    tot
  1  0.000  0.005  0.005  0.000  0.471  0.000  0.000  0.471  0.000  0.953
 
band  11 # energy   36.27357285 # occ.  0.00000000
 
ion      s     py     pz     px    dxy    dyz    dz2    dxz    dx2    tot
  1  0.144  0.000  0.000  0.116  0.000  0.008  0.196  0.000  0.587  1.051
 
band  12 # energy   41.32463439 # occ.  0.00000000
 
ion      s     py     pz     px    dxy    dyz    dz2    dxz    dx2    tot
  1  0.000  0.035  0.035  0.000  0.008  0.000  0.000  0.008  0.000  0.084
 

 k-point    5 :   -0.06250000 0.06250000 0.06250000     weight = 0.01171875

band   1 # energy   -2.33140566 # occ.  1.00000000
 
ion      s     py     pz     px    dxy    dyz    dz2    dxz    dx2    tot
  1  0.737  0.000  0.000  0.024  0.000  0.000  0.000  0.000  0.000  0.762
 
band   2 # energy    3.69810402 # occ.  1.00000000
 
ion      s     py     pz     px    dxy    dyz    dz2    dxz    dx2    tot
  1  0.000  0.001  0.001  0.000  0.489  0.000  0.000  0.489  0.000  0.980
 
band   3 # energy    3.69810418 # occ.  1.00000000
 
ion      s     py     pz     px    dxy    dyz    dz2    dxz    dx2    tot
  1  0.000  0.001  0.001  0.000  0.489  0.000  0.000  0.489  0.000  0.980
 
band   4 # energy    3.79357844 # occ.  1.00000000
 
ion      s     py     pz     px    dxy    dyz    dz2    dxz    dx2    tot
  1  0.000  0.000  0.000  0.000  0.000  0.982  0.000  0.000  0.000  0.982
 
band   5 # energy    4.97398419 # occ.  1.00000000
 
ion      s     py     pz     px    dxy    dyz    dz2    dxz    dx2    tot
  1  0.000  0.000  0.000  0.000  0.000  0.000  0.723  0.000  0.241  0.964
 
band   6 # energy    5.19294443 # occ.  1.00000000
 
ion      s     py     pz     px    dxy    dyz    dz2    dxz    dx2    tot
  1  0.000  0.000  0.000  0.000  0.000  0.000  0.243  0.000  0.729  0.973
 
band   7 # energy   29.57312172 # occ.  0.00000000
 
ion      s     py     pz     px    dxy    dyz    dz2    dxz    dx2    tot
  1  0.000  0.000  0.000  0.000  0.000  0.000  0.207  0.000  0.069  0.276
 
band   8 # energy   30.94387671 # occ.  0.00000000
 
ion      s     py     pz     px    dxy    dyz    dz2    dxz    dx2    tot
  1  0.000  0.011  0.011  0.000  0.129  0.000  0.000  0.129  0.000  0.279
 
band   9 # energy   30.94387671 # occ.  0.00000000
 
ion      s     py     pz     px    dxy    dyz    dz2    dxz    dx2    tot
  1  0.000  0.011  0.011  0.000  0.129  0.000  0.000  0.129  0.000  0.279
 
band  10 # energy   34.38139671 # occ.  0.00000000
 
ion      s     py     pz     px    dxy    dyz    dz2    dxz    dx2    tot
  1  0.018  0.000  0.000  0.283  0.000  0.000  0.086  0.000  0.259  0.645
 
band  11 # energy   36.66376251 # occ.  0.00000000
 
ion      s     py     pz     px    dxy    dyz    dz2    dxz    dx2    tot
  1  0.000  0.219  0.218  0.000  0.306  0.000  0.000  0.304  0.000  1.048
 
band  12 # energy   36.66376255 # occ.  0.00000000
 
ion      s     py     pz     px    dxy    dyz    dz2    dxz    dx2    tot
  1  0.000  0.218  0.219  0.000  0.304  0.000  0.000  0.306  0.000  1.048
 

 k-point    6 :    0.18750000 0.18750000 0.06250000     weight = 0.04687500

band   1 # energy    1.45857222 # occ.  1.00000000
 
ion      s     py     pz     px    dxy    dyz    dz2    dxz    dx2    tot
  1  0.301  0.048  0.077  0.048  0.000  0.156  0.043  0.156  0.000  0.830
 
band   2 # energy    2.73424503 # occ.  1.00000000
 
ion      s     py     pz     px    dxy    dyz    dz2    dxz    dx2    tot
  1  0.000  0.022  0.000  0.022  0.000  0.351  0.000  0.351  0.188  0.935
 
band   3 # energy    2.93483389 # occ.  1.00000000
 
ion      s     py     pz     px    dxy    dyz    dz2    dxz    dx2    tot
  1  0.030  0.004  0.069  0.004  0.660  0.080  0.007  0.080  0.000  0.934
 
band   4 # energy    5.06334667 # occ.  1.00000000
 
ion      s     py     pz     px    dxy    dyz    dz2    dxz    dx2    tot
  1  0.000  0.001  0.000  0.001  0.000  0.106  0.000  0.106  0.763  0.976
 
band   5 # energy    5.33022253 # occ.  1.00112197
 
ion      s     py     pz     px    dxy    dyz    dz2    dxz    dx2    tot
  1  0.005  0.000  0.001  0.000  0.000  0.033  0.910  0.033  0.000  0.982
 
band   6 # energy    7.14190051 # occ. -0.01749675
 
ion      s     py     pz     px    dxy    dyz    dz2    dxz    dx2    tot
  1  0.063  0.031  0.058  0.031  0.308  0.217  0.019  0.217  0.000  0.944
 
band   7 # energy   19.76899841 # occ.  0.00000000
 
ion      s     py     pz     px    dxy    dyz    dz2    dxz    dx2    tot
  1  0.000  0.165  0.000  0.165  0.000  0.183  0.000  0.183  0.141  0.836
 
band   8 # energy   20.63483684 # occ.  0.00000000
 
ion      s     py     pz     px    dxy    dyz    dz2    dxz    dx2    tot
  1  0.205  0.012  0.257  0.012  0.083  0.105  0.020  0.105  0.000  0.799
 
band   9 # energy   24.62649546 # occ.  0.00000000
 
ion      s     py     pz     px    dxy    dyz    dz2    dxz    dx2    tot
  1  0.151  0.206  0.006  0.206  0.181  0.005  0.031  0.005  0.000  0.791
 
band  10 # energy   34.56988245 # occ.  0.00000000
 
ion      s     py     pz     px    dxy    dyz    dz2    dxz    dx2    tot
  1  0.000  0.013  0.000  0.013  0.000  0.099  0.000  0.099  0.144  0.367
 
band  11 # energy   38.44708822 # occ.  0.00000000
 
ion      s     py     pz     px    dxy    dyz    dz2    dxz    dx2    tot
  1  0.020  0.021  0.028  0.021  0.430  0.177  0.014  0.177  0.000  0.888
 
band  12 # energy   40.89871344 # occ.  0.00000000
 
ion      s     py     pz     px    dxy    dyz    dz2    dxz    dx2    tot
  1  0.000  0.085  0.000  0.085  0.000  0.042  0.000  0.042  0.444  0.700
 

 k-point    7 :    0.31250000 0.18750000 0.06250000     weight = 0.09375000

band   1 # energy    1.82577380 # occ.  1.00000000
 
ion      s     py     pz     px    dxy    dyz    dz2    dxz    dx2    tot
  1  0.091  0.002  0.007  0.049  0.031  0.534  0.054  0.041  0.095  0.904
 
band   2 # energy    2.54883280 # occ.  1.00000000
 
ion      s     py     pz     px    dxy    dyz    dz2    dxz    dx2    tot
  1  0.000  0.024  0.011  0.013  0.326  0.025  0.001  0.477  0.067  0.942
 
band   3 # energy    3.60343036 # occ.  1.00000000
 
ion      s     py     pz     px    dxy    dyz    dz2    dxz    dx2    tot
  1  0.021  0.093  0.129  0.001  0.367  0.011  0.069  0.144  0.055  0.890
 
band   4 # energy    5.21331822 # occ.  1.00000000
 
ion      s     py     pz     px    dxy    dyz    dz2    dxz    dx2    tot
  1  0.003  0.001  0.000  0.002  0.000  0.206  0.050  0.045  0.674  0.981
 
band   5 # energy    5.42626281 # occ.  1.01041225
 
ion      s     py     pz     px    dxy    dyz    dz2    dxz    dx2    tot
  1  0.004  0.003  0.005  0.000  0.048  0.013  0.782  0.073  0.055  0.984
 
band   6 # energy    9.62453642 # occ. -0.00323242
 
ion      s     py     pz     px    dxy    dyz    dz2    dxz    dx2    tot
  1  0.068  0.120  0.178  0.019  0.204  0.080  0.032  0.182  0.000  0.883
 
band   7 # energy   15.12902613 # occ.  0.00000000
 
ion      s     py     pz     px    dxy    dyz    dz2    dxz    dx2    tot
  1  0.247  0.116  0.028  0.073  0.013  0.309  0.005  0.019  0.067  0.878
 
band   8 # energy   19.00977971 # occ.  0.00000000
 
ion      s     py     pz     px    dxy    dyz    dz2    dxz    dx2    tot
  1  0.180  0.052  0.106  0.150  0.098  0.002  0.000  0.179  0.030  0.796
 
band   9 # energy   23.29156395 # occ.  0.00000000
 
ion      s     py     pz     px    dxy    dyz    dz2    dxz    dx2    tot
  1  0.138  0.112  0.053  0.249  0.116  0.042  0.009  0.044  0.004  0.767
 
band  10 # energy   34.98719211 # occ.  0.00000000
 
ion      s     py     pz     px    dxy    dyz    dz2    dxz    dx2    tot
  1  0.007  0.001  0.001  0.025  0.151  0.008  0.013  0.235  0.152  0.594
 
band  11 # energy   39.42666679 # occ.  0.00000000
 
ion      s     py     pz     px    dxy    dyz    dz2    dxz    dx2    tot
  1  0.004  0.058  0.001  0.000  0.172  0.066  0.103  0.009  0.115  0.530
 
band  12 # energy   41.57888892 # occ.  0.00000000
 
ion      s     py     pz     px    dxy    dyz    dz2    dxz    dx2    tot
  1  0.049  0.008  0.005  0.120  0.072  0.000  0.264  0.036  0.345  0.898
 

 k-point    8 :   -0.18750000 0.18750000 0.06250000     weight = 0.04687500

band   1 # energy   -1.10628775 # occ.  1.00000000
 
ion      s     py     pz     px    dxy    dyz    dz2    dxz    dx2    tot
  1  0.636  0.020  0.000  0.087  0.014  0.000  0.006  0.000  0.005  0.767
 
band   2 # energy    3.40780576 # occ.  1.00000000
 
ion      s     py     pz     px    dxy    dyz    dz2    dxz    dx2    tot
  1  0.000  0.000  0.002  0.000  0.000  0.377  0.000  0.594  0.000  0.974
 
band   3 # energy    3.61910559 # occ.  1.00000000
 
ion      s     py     pz     px    dxy    dyz    dz2    dxz    dx2    tot
  1  0.005  0.014  0.000  0.008  0.825  0.000  0.098  0.000  0.010  0.960
 
band   4 # energy    4.45620737 # occ.  1.00000000
 
ion      s     py     pz     px    dxy    dyz    dz2    dxz    dx2    tot
  1  0.000  0.000  0.007  0.000  0.000  0.600  0.000  0.371  0.000  0.978
 
band   5 # energy    4.70206215 # occ.  1.00000000
 
ion      s     py     pz     px    dxy    dyz    dz2    dxz    dx2    tot
  1  0.000  0.000  0.000  0.000  0.116  0.000  0.664  0.000  0.179  0.959
 
band   6 # energy    5.30002960 # occ.  1.00856508
 
ion      s     py     pz     px    dxy    dyz    dz2    dxz    dx2    tot
  1  0.005  0.000  0.000  0.001  0.005  0.000  0.187  0.000  0.779  0.977
 
band   7 # energy   25.20268728 # occ.  0.00000000
 
ion      s     py     pz     px    dxy    dyz    dz2    dxz    dx2    tot
  1  0.025  0.120  0.000  0.053  0.297  0.000  0.229  0.000  0.018  0.742
 
band   8 # energy   28.56494710 # occ.  0.00000000
 
ion      s     py     pz     px    dxy    dyz    dz2    dxz    dx2    tot
  1  0.024  0.001  0.000  0.137  0.063  0.000  0.045  0.000  0.157  0.427
 
band   9 # energy   29.54296277 # occ.  0.00000000
 
ion      s     py     pz     px    dxy    dyz    dz2    dxz    dx2    tot
  1  0.000  0.000  0.186  0.000  0.000  0.030  0.000  0.637  0.000  0.853
 
band  10 # energy   33.73626756 # occ.  0.00000000
 
ion      s     py     pz     px    dxy    dyz    dz2    dxz    dx2    tot
  1  0.002  0.237  0.000  0.083  0.255  0.000  0.118  0.000  0.003  0.698
 
band  11 # energy   33.92552346 # occ.  0.00000000
 
ion      s     py     pz     px    dxy    dyz    dz2    dxz    dx2    tot
  1  0.000  0.000  0.366  0.000  0.000  0.514  0.000  0.015  0.000  0.895
 
band  12 # energy   35.51667375 # occ.  0.00000000
 
ion      s     py     pz     px    dxy    dyz    dz2    dxz    dx2    tot
  1  0.095  0.141  0.000  0.120  0.004  0.000  0.116  0.000  0.006  0.482
 

 k-point    9 :    0.31250000 0.31250000 0.06250000     weight = 0.01562500

band   1 # energy    2.16109635 # occ.  1.00000000
 
ion      s     py     pz     px    dxy    dyz    dz2    dxz    dx2    tot
  1  0.041  0.008  0.008  0.008  0.292  0.292  0.000  0.292  0.000  0.939
 
band   2 # energy    2.93122093 # occ.  1.00000000
 
ion      s     py     pz     px    dxy    dyz    dz2    dxz    dx2    tot
  1  0.000  0.026  0.104  0.026  0.365  0.091  0.202  0.091  0.000  0.906
 
band   3 # energy    2.93122103 # occ.  1.00000000
 
ion      s     py     pz     px    dxy    dyz    dz2    dxz    dx2    tot
  1  0.000  0.078  0.000  0.078  0.000  0.274  0.000  0.274  0.202  0.906
 
band   4 # energy    5.36412387 # occ.  1.00000000
 
ion      s     py     pz     px    dxy    dyz    dz2    dxz    dx2    tot
  1  0.000  0.001  0.005  0.001  0.154  0.039  0.745  0.039  0.000  0.984
 
band   5 # energy    5.36412393 # occ.  1.00102201
 
ion      s     py     pz     px    dxy    dyz    dz2    dxz    dx2    tot
  1  0.000  0.004  0.000  0.004  0.000  0.116  0.000  0.116  0.745  0.984
 
band   6 # energy   13.19819787 # occ.  0.00000000
 
ion      s     py     pz     px    dxy    dyz    dz2    dxz    dx2    tot
  1  0.000  0.073  0.294  0.073  0.234  0.059  0.065  0.059  0.000  0.857
 
band   7 # energy   13.19819791 # occ.  0.00000000
 
ion      s     py     pz     px    dxy    dyz    dz2    dxz    dx2    tot
  1  0.000  0.220  0.000  0.220  0.000  0.176  0.000  0.176  0.065  0.857
 
band   8 # energy   15.83716823 # occ.  0.00000000
 
ion      s     py     pz     px    dxy    dyz    dz2    dxz    dx2    tot
  1  0.587  0.002  0.002  0.002  0.084  0.084  0.000  0.084  0.000  0.846
 
band   9 # energy   22.81432454 # occ.  0.00000000
 
ion      s     py     pz     px    dxy    dyz    dz2    dxz    dx2    tot
  1  0.136  0.131  0.131  0.131  0.087  0.087  0.000  0.087  0.000  0.789
 
band  10 # energy   37.46731689 # occ.  0.00000000
 
ion      s     py     pz     px    dxy    dyz    dz2    dxz    dx2    tot
  1  0.000  0.024  0.000  0.024  0.000  0.053  0.000  0.054  0.304  0.459
 
band  11 # energy   37.46731689 # occ.  0.00000000
 
ion      s     py     pz     px    dxy    dyz    dz2    dxz    dx2    tot
  1  0.000  0.008  0.032  0.008  0.071  0.018  0.304  0.018  0.000  0.459
 
band  12 # energy   44.94734439 # occ.  0.00000000
 
ion      s     py     pz     px    dxy    dyz    dz2    dxz    dx2    tot
  1  0.022  0.049  0.049  0.049  0.393  0.393  0.000  0.393  0.000  1.347
 

 k-point   10 :   -0.31250000 0.31250000 0.06250000     weight = 0.04687500

band   1 # energy    0.56828183 # occ.  1.00000000
 
ion      s     py     pz     px    dxy    dyz    dz2    dxz    dx2    tot
  1  0.384  0.031  0.000  0.099  0.199  0.000  0.091  0.000  0.010  0.814
 
band   2 # energy    2.97775866 # occ.  1.00000000
 
ion      s     py     pz     px    dxy    dyz    dz2    dxz    dx2    tot
  1  0.000  0.000  0.003  0.000  0.000  0.436  0.000  0.528  0.000  0.967
 
band   3 # energy    3.67083406 # occ.  1.00000000
 
ion      s     py     pz     px    dxy    dyz    dz2    dxz    dx2    tot
  1  0.060  0.072  0.000  0.079  0.293  0.000  0.256  0.000  0.128  0.889
 
band   4 # energy    4.89739295 # occ.  1.00000000
 
ion      s     py     pz     px    dxy    dyz    dz2    dxz    dx2    tot
  1  0.001  0.010  0.000  0.010  0.427  0.000  0.492  0.000  0.031  0.971
 
band   5 # energy    5.48255209 # occ.  1.01659395
 
ion      s     py     pz     px    dxy    dyz    dz2    dxz    dx2    tot
  1  0.030  0.008  0.000  0.017  0.002  0.000  0.104  0.000  0.809  0.971
 
band   6 # energy    5.54847076 # occ.  0.69526494
 
ion      s     py     pz     px    dxy    dyz    dz2    dxz    dx2    tot
  1  0.000  0.000  0.010  0.000  0.000  0.538  0.000  0.433  0.000  0.981
 
band   7 # energy   19.42241615 # occ.  0.00000000
 
ion      s     py     pz     px    dxy    dyz    dz2    dxz    dx2    tot
  1  0.141  0.171  0.000  0.092  0.325  0.000  0.132  0.000  0.007  0.868
 
band   8 # energy   26.10263419 # occ.  0.00000000
 
ion      s     py     pz     px    dxy    dyz    dz2    dxz    dx2    tot
  1  0.026  0.056  0.000  0.144  0.004  0.000  0.074  0.000  0.076  0.381
 
band   9 # energy   27.45685443 # occ.  0.00000000
 
ion      s     py     pz     px    dxy    dyz    dz2    dxz    dx2    tot
  1  0.000  0.000  0.464  0.000  0.000  0.018  0.000  0.489  0.000  0.970
 
band  10 # energy   31.98116228 # occ.  0.00000000
 
ion      s     py     pz     px    dxy    dyz    dz2    dxz    dx2    tot
  1  0.000  0.000  0.203  0.000  0.000  0.649  0.000  0.165  0.000  1.017
 
band  11 # energy   33.98493506 # occ.  0.00000000
 
ion      s     py     pz     px    dxy    dyz    dz2    dxz    dx2    tot
  1  0.078  0.232  0.000  0.000  0.029  0.000  0.498  0.000  0.006  0.843
 
band  12 # energy   36.88003149 # occ.  0.00000000
 
ion      s     py     pz     px    dxy    dyz    dz2    dxz    dx2    tot
  1  0.117  0.014  0.000  0.068  0.192  0.000  0.046  0.000  0.117  0.553
 

 k-point   11 :   -0.18750000 0.31250000 0.06250000     weight = 0.04687500

band   1 # energy    0.38119454 # occ.  1.00000000
 
ion      s     py     pz     px    dxy    dyz    dz2    dxz    dx2    tot
  1  0.465  0.014  0.014  0.150  0.039  0.000  0.016  0.039  0.049  0.787
 
band   2 # energy    3.18918965 # occ.  1.00000000
 
ion      s     py     pz     px    dxy    dyz    dz2    dxz    dx2    tot
  1  0.000  0.012  0.012  0.000  0.292  0.000  0.247  0.292  0.082  0.938
 
band   3 # energy    3.38866734 # occ.  1.00000000
 
ion      s     py     pz     px    dxy    dyz    dz2    dxz    dx2    tot
  1  0.010  0.005  0.005  0.022  0.223  0.469  0.000  0.223  0.000  0.958
 
band   4 # energy    4.54741620 # occ.  1.00000000
 
ion      s     py     pz     px    dxy    dyz    dz2    dxz    dx2    tot
  1  0.000  0.002  0.002  0.000  0.178  0.000  0.452  0.178  0.151  0.962
 
band   5 # energy    5.27310340 # occ.  1.00307059
 
ion      s     py     pz     px    dxy    dyz    dz2    dxz    dx2    tot
  1  0.000  0.005  0.005  0.002  0.178  0.387  0.056  0.178  0.168  0.979
 
band   6 # energy    5.67181019 # occ.  0.72501931
 
ion      s     py     pz     px    dxy    dyz    dz2    dxz    dx2    tot
  1  0.046  0.006  0.006  0.023  0.035  0.119  0.175  0.035  0.524  0.968
 
band   7 # energy   22.38623795 # occ.  0.00000000
 
ion      s     py     pz     px    dxy    dyz    dz2    dxz    dx2    tot
  1  0.000  0.126  0.126  0.000  0.147  0.000  0.213  0.147  0.071  0.831
 
band   8 # energy   23.43963317 # occ.  0.00000000
 
ion      s     py     pz     px    dxy    dyz    dz2    dxz    dx2    tot
  1  0.143  0.064  0.064  0.178  0.160  0.020  0.002  0.160  0.005  0.796
 
band   9 # energy   29.93585341 # occ.  0.00000000
 
ion      s     py     pz     px    dxy    dyz    dz2    dxz    dx2    tot
  1  0.000  0.057  0.057  0.000  0.154  0.000  0.202  0.154  0.067  0.690
 
band  10 # energy   30.32581460 # occ.  0.00000000
 
ion      s     py     pz     px    dxy    dyz    dz2    dxz    dx2    tot
  1  0.001  0.228  0.228  0.057  0.022  0.096  0.004  0.022  0.011  0.669
 
band  11 # energy   34.13942308 # occ.  0.00000000
 
ion      s     py     pz     px    dxy    dyz    dz2    dxz    dx2    tot
  1  0.100  0.002  0.002  0.061  0.131  0.382  0.014  0.131  0.042  0.866
 
band  12 # energy   38.83776761 # occ.  0.00000000
 
ion      s     py     pz     px    dxy    dyz    dz2    dxz    dx2    tot
  1  0.000  0.148  0.148  0.000  0.002  0.000  0.117  0.002  0.039  0.455
 

 k-point   12 :   -0.43750000 0.43750000 0.06250000     weight = 0.04687500

band   1 # energy    1.03785726 # occ.  1.00000000
 
ion      s     py     pz     px    dxy    dyz    dz2    dxz    dx2    tot
  1  0.155  0.000  0.000  0.018  0.440  0.000  0.270  0.000  0.001  0.884
 
band   2 # energy    2.68704105 # occ.  1.00000000
 
ion      s     py     pz     px    dxy    dyz    dz2    dxz    dx2    tot
  1  0.000  0.000  0.003  0.000  0.000  0.467  0.000  0.494  0.000  0.964
 
band   3 # energy    4.53335400 # occ.  1.00000000
 
ion      s     py     pz     px    dxy    dyz    dz2    dxz    dx2    tot
  1  0.020  0.083  0.000  0.090  0.000  0.000  0.096  0.000  0.612  0.901
 
band   4 # energy    5.09079499 # occ.  1.00000000
 
ion      s     py     pz     px    dxy    dyz    dz2    dxz    dx2    tot
  1  0.008  0.007  0.000  0.005  0.339  0.000  0.553  0.000  0.065  0.976
 
band   5 # energy    6.43159852 # occ.  0.34767715
 
ion      s     py     pz     px    dxy    dyz    dz2    dxz    dx2    tot
  1  0.000  0.000  0.002  0.000  0.000  0.511  0.000  0.478  0.000  0.991
 
band   6 # energy    6.71588094 # occ.  0.00513833
 
ion      s     py     pz     px    dxy    dyz    dz2    dxz    dx2    tot
  1  0.050  0.194  0.000  0.233  0.055  0.000  0.008  0.000  0.309  0.849
 
band   7 # energy   14.66056384 # occ.  0.00000000
 
ion      s     py     pz     px    dxy    dyz    dz2    dxz    dx2    tot
  1  0.350  0.082  0.000  0.022  0.359  0.000  0.103  0.000  0.003  0.919
 
band   8 # energy   24.68394261 # occ.  0.00000000
 
ion      s     py     pz     px    dxy    dyz    dz2    dxz    dx2    tot
  1  0.024  0.106  0.000  0.131  0.001  0.000  0.073  0.000  0.009  0.344
 
band   9 # energy   25.78980545 # occ.  0.00000000
 
ion      s     py     pz     px    dxy    dyz    dz2    dxz    dx2    tot
  1  0.000  0.000  0.624  0.000  0.000  0.050  0.000  0.197  0.000  0.871
 
band  10 # energy   31.26425943 # occ.  0.00000000
 
ion      s     py     pz     px    dxy    dyz    dz2    dxz    dx2    tot
  1  0.000  0.000  0.123  0.000  0.000  0.607  0.000  0.451  0.000  1.181
 
band  11 # energy   34.31459697 # occ.  0.00000000
 
ion      s     py     pz     px    dxy    dyz    dz2    dxz    dx2    tot