<?xml version="1.0" encoding="ISO-8859-1"?>
<modeling>
 <generator>
  <i name="program" type="string">vasp </i>
  <i name="version" type="string">5.4.1  </i>
  <i name="subversion" type="string">24Jun15 (build Jul 19 2016 16:50:41) complex                          parallel </i>
  <i name="platform" type="string">IFC91_ompi </i>
  <i name="date" type="string">2019 10 17 </i>
  <i name="time" type="string">12:22:55 </i>
 </generator>
 <incar>
  <i type="string" name="SYSTEM"> Fe BCC</i>
  <i type="string" name="PREC">accurate</i>
  <i type="int" name="ISPIN">     2</i>
  <i name="EDIFF">      0.00000100</i>
  <i name="ENMAX">    400.00000000</i>
  <v name="MAGMOM">      4.00000000</v>
  <i type="int" name="ISMEAR">    -5</i>
  <i type="logical" name="LORBIT"> F  </i>
  <v type="int" name="KPOINT_BSE">    -1     0     0     0</v>
 </incar>
 <kpoints>
  <generation param="Monkhorst-Pack">
   <v type="int" name="divisions">       8        8        8 </v>
   <v name="usershift">      0.00000000       0.00000000       0.00000000 </v>
   <v name="genvec1">      0.12500000       0.00000000       0.00000000 </v>
   <v name="genvec2">      0.00000000       0.12500000       0.00000000 </v>
   <v name="genvec3">      0.00000000       0.00000000       0.12500000 </v>
   <v name="shift">      0.50000000       0.50000000       0.50000000 </v>
  </generation>
  <varray name="kpointlist" >
   <v>       0.06250000       0.06250000       0.06250000 </v>
   <v>       0.18750000       0.06250000       0.06250000 </v>
   <v>       0.31250000       0.06250000       0.06250000 </v>
   <v>       0.43750000       0.06250000       0.06250000 </v>
   <v>      -0.06250000       0.06250000       0.06250000 </v>
   <v>       0.18750000       0.18750000       0.06250000 </v>
   <v>       0.31250000       0.18750000       0.06250000 </v>
   <v>      -0.18750000       0.18750000       0.06250000 </v>
   <v>       0.31250000       0.31250000       0.06250000 </v>
   <v>      -0.31250000       0.31250000       0.06250000 </v>
   <v>      -0.18750000       0.31250000       0.06250000 </v>
   <v>      -0.43750000       0.43750000       0.06250000 </v>
   <v>      -0.31250000       0.43750000       0.06250000 </v>
   <v>      -0.43750000      -0.43750000       0.06250000 </v>
   <v>      -0.31250000      -0.43750000       0.06250000 </v>
   <v>       0.18750000       0.18750000       0.18750000 </v>
   <v>       0.31250000       0.18750000       0.18750000 </v>
   <v>      -0.18750000       0.18750000       0.18750000 </v>
   <v>      -0.31250000       0.31250000       0.18750000 </v>
   <v>      -0.43750000       0.43750000       0.18750000 </v>
   <v>      -0.31250000       0.43750000       0.18750000 </v>
   <v>      -0.43750000      -0.43750000       0.18750000 </v>
   <v>      -0.31250000       0.31250000       0.31250000 </v>
   <v>      -0.43750000       0.43750000       0.31250000 </v>
   <v>      -0.43750000      -0.43750000       0.31250000 </v>
   <v>      -0.43750000       0.43750000       0.43750000 </v>
  </varray>
  <varray name="weights" >
   <v>       0.01562500 </v>
   <v>       0.04687500 </v>
   <v>       0.04687500 </v>
   <v>       0.02343750 </v>
   <v>       0.01171875 </v>
   <v>       0.04687500 </v>
   <v>       0.09375000 </v>
   <v>       0.04687500 </v>
   <v>       0.01562500 </v>
   <v>       0.04687500 </v>
   <v>       0.04687500 </v>
   <v>       0.04687500 </v>
   <v>       0.09375000 </v>
   <v>       0.04687500 </v>
   <v>       0.04687500 </v>
   <v>       0.01562500 </v>
   <v>       0.02343750 </v>
   <v>       0.01171875 </v>
   <v>       0.04687500 </v>
   <v>       0.04687500 </v>
   <v>       0.04687500 </v>
   <v>       0.04687500 </v>
   <v>       0.01171875 </v>
   <v>       0.04687500 </v>
   <v>       0.01562500 </v>
   <v>       0.01171875 </v>
  </varray>
  <varray name="tetrahedronlist"  type="int" >
   <v type="int" >        4        1        2        2        6 </v>
   <v type="int" >        8        2        2        6        6 </v>
   <v type="int" >        4        2        6        6       16 </v>
   <v type="int" >        4        2        3        6        7 </v>
   <v type="int" >        4        2        6        6        7 </v>
   <v type="int" >       12        6        6        7       16 </v>
   <v type="int" >        8        3        6        7        7 </v>
   <v type="int" >        8        6        7        7       17 </v>
   <v type="int" >        8        6        7       16       17 </v>
   <v type="int" >        4        3        4        7        7 </v>
   <v type="int" >        4        3        7        7        7 </v>
   <v type="int" >       16        7        7        7       17 </v>
   <v type="int" >        8        4        7        7        7 </v>
   <v type="int" >        4        7        7        7       16 </v>
   <v type="int" >       20        7        7       16       17 </v>
   <v type="int" >        4        3        4        6        7 </v>
   <v type="int" >        4        4        6        7        7 </v>
   <v type="int" >       16        6        7        7       16 </v>
   <v type="int" >        8        3        6        6        7 </v>
   <v type="int" >        4        6        6        6        7 </v>
   <v type="int" >        4        2        2        3        6 </v>
   <v type="int" >        8        2        3        6        6 </v>
   <v type="int" >        4        2        6        6        6 </v>
   <v type="int" >        4        2        2        2        6 </v>
   <v type="int" >        8        2        2        6       11 </v>
   <v type="int" >        4        2        6        6       11 </v>
   <v type="int" >       16        1        2        2        8 </v>
   <v type="int" >        4        2        2        2        8 </v>
   <v type="int" >       12        2        2        8       11 </v>
   <v type="int" >       16        1        2        8        8 </v>
   <v type="int" >        4        2        8        8       18 </v>
   <v type="int" >        4        2        8       11       18 </v>
   <v type="int" >       20        1        5        8        8 </v>
   <v type="int" >        4        1        8        8        8 </v>
   <v type="int" >        4        8        8        8       18 </v>
   <v type="int" >        8        5        8        8        8 </v>
   <v type="int" >        4        8        8        8       11 </v>
   <v type="int" >        4        8        8       11       18 </v>
   <v type="int" >        8        1        2        5        8 </v>
   <v type="int" >        8        2        5        8        8 </v>
   <v type="int" >        8        2        8        8       11 </v>
   <v type="int" >        4        2        2        6        8 </v>
   <v type="int" >        4        2        6        8       11 </v>
   <v type="int" >        4        6        7        9       16 </v>
   <v type="int" >       16        7        9       16       17 </v>
   <v type="int" >       12        9       16       17       17 </v>
   <v type="int" >       20        7        7        9       17 </v>
   <v type="int" >       12        7        9       17       17 </v>
   <v type="int" >        8        7        7       17       17 </v>
   <v type="int" >       12        3        6        7       16 </v>
   <v type="int" >        8        3        7        7       16 </v>
   <v type="int" >        8        3        6        6       16 </v>
   <v type="int" >        4        3        6       13       16 </v>
   <v type="int" >        4        3        7       13       16 </v>
   <v type="int" >        4        2        6        6       10 </v>
   <v type="int" >        4        3        6        6       10 </v>
   <v type="int" >        8        3        6       10       13 </v>
   <v type="int" >       12        2        6       10       11 </v>
   <v type="int" >        4        6       10       11       19 </v>
   <v type="int" >        4        6       10       13       19 </v>
   <v type="int" >        4        2        8       11       11 </v>
   <v type="int" >        4        2       10       11       11 </v>
   <v type="int" >        4       10       11       11       19 </v>
   <v type="int" >        8        8       11       11       18 </v>
   <v type="int" >        8       11       11       18       19 </v>
   <v type="int" >        4       11       11       19       19 </v>
   <v type="int" >        4        8        8       10       18 </v>
   <v type="int" >       12        8       10       11       18 </v>
   <v type="int" >       12       10       11       18       19 </v>
   <v type="int" >        4       10       11       13       18 </v>
   <v type="int" >        4       10       13       18       19 </v>
   <v type="int" >        4        2        3        8       11 </v>
   <v type="int" >        4        3        8       10       11 </v>
   <v type="int" >        8        3       10       11       13 </v>
   <v type="int" >       16        2        3        6       11 </v>
   <v type="int" >        4        3        6        7       11 </v>
   <v type="int" >        4        3        7       11       13 </v>
   <v type="int" >        4        4        7        9       17 </v>
   <v type="int" >        8        4        7        7       17 </v>
   <v type="int" >        4        4        7       14       17 </v>
   <v type="int" >        4        3        7        7       12 </v>
   <v type="int" >        8        4        7        7       12 </v>
   <v type="int" >        8        4        7       12       14 </v>
   <v type="int" >        8        3        7       12       13 </v>
   <v type="int" >        4        7       12       13       20 </v>
   <v type="int" >        4        7       12       14       20 </v>
   <v type="int" >        4        3       10       13       13 </v>
   <v type="int" >        4        3       12       13       13 </v>
   <v type="int" >        4       12       13       13       20 </v>
   <v type="int" >        8       10       13       13       19 </v>
   <v type="int" >       12       13       13       19       21 </v>
   <v type="int" >        4       13       13       20       21 </v>
   <v type="int" >        8       10       11       13       19 </v>
   <v type="int" >        8       11       13       19       19 </v>
   <v type="int" >        4       13       19       19       20 </v>
   <v type="int" >        8       13       19       20       21 </v>
   <v type="int" >        4       10       11       12       19 </v>
   <v type="int" >        4       11       12       13       19 </v>
   <v type="int" >        8       12       13       19       20 </v>
   <v type="int" >        8       10       12       13       19 </v>
   <v type="int" >        4       12       13       14       19 </v>
   <v type="int" >        4       12       14       19       20 </v>
   <v type="int" >        4        3        4       10       13 </v>
   <v type="int" >        4        4       10       12       13 </v>
   <v type="int" >       12        4       12       13       14 </v>
   <v type="int" >       12        3        4        7       13 </v>
   <v type="int" >        8        4        7        7       13 </v>
   <v type="int" >       12        4        7       13       14 </v>
   <v type="int" >        4        4       12       14       14 </v>
   <v type="int" >        4       12       14       14       20 </v>
   <v type="int" >        4       14       14       20       22 </v>
   <v type="int" >        4       12       13       15       20 </v>
   <v type="int" >        4       12       14       15       20 </v>
   <v type="int" >        8       14       15       20       22 </v>
   <v type="int" >       12       13       15       20       21 </v>
   <v type="int" >       12       15       20       21       22 </v>
   <v type="int" >        4       15       20       22       22 </v>
   <v type="int" >        4       13       13       14       21 </v>
   <v type="int" >       12       13       14       15       21 </v>
   <v type="int" >       16       14       15       21       22 </v>
   <v type="int" >        8       13       14       20       21 </v>
   <v type="int" >        4       14       20       20       21 </v>
   <v type="int" >       12       14       20       21       22 </v>
   <v type="int" >        4       12       12       13       20 </v>
   <v type="int" >        8       12       13       14       20 </v>
   <v type="int" >        8       12       14       20       20 </v>
   <v type="int" >        8       12       12       14       20 </v>
   <v type="int" >        4       12       13       20       20 </v>
   <v type="int" >       16        3        4       12       14 </v>
   <v type="int" >        8        3       12       12       14 </v>
   <v type="int" >        8        3       12       13       14 </v>
   <v type="int" >       16        3        4        7       14 </v>
   <v type="int" >        4        3        6        7       14 </v>
   <v type="int" >        4        3        6       13       14 </v>
   <v type="int" >        8       14       15       15       22 </v>
   <v type="int" >        8       15       15       22       22 </v>
   <v type="int" >        8       15       21       22       22 </v>
   <v type="int" >       12       13       14       15       22 </v>
   <v type="int" >        4       13       15       15       22 </v>
   <v type="int" >        8       13       15       21       22 </v>
   <v type="int" >       12       13       14       20       22 </v>
   <v type="int" >        4       13       19       20       22 </v>
   <v type="int" >        4       13       19       21       22 </v>
   <v type="int" >        4       10       12       14       20 </v>
   <v type="int" >        4       10       13       14       20 </v>
   <v type="int" >        8       10       13       19       20 </v>
   <v type="int" >        8       10       12       13       20 </v>
   <v type="int" >        4       10       11       13       20 </v>
   <v type="int" >        4       10       11       19       20 </v>
   <v type="int" >        4        2        3       12       13 </v>
   <v type="int" >        4        2       10       12       13 </v>
   <v type="int" >        8        2       10       11       13 </v>
   <v type="int" >       12        2        3        6       13 </v>
   <v type="int" >        4        2        2        6       13 </v>
   <v type="int" >        4        2        2       11       13 </v>
   <v type="int" >        4       11       13       15       21 </v>
   <v type="int" >        8       11       13       19       21 </v>
   <v type="int" >        4       11       18       19       21 </v>
   <v type="int" >        4        8       10       13       19 </v>
   <v type="int" >        4        8       11       13       19 </v>
   <v type="int" >        8        8       11       18       19 </v>
   <v type="int" >        8        8       10       11       19 </v>
   <v type="int" >        4        8        8       11       19 </v>
   <v type="int" >        4        8        8       18       19 </v>
   <v type="int" >        4        1        2       10       11 </v>
   <v type="int" >        4        1        8       10       11 </v>
   <v type="int" >        8        1        8        8       11 </v>
   <v type="int" >        8        1        2        2       11 </v>
   <v type="int" >       12        1        2        8       11 </v>
   <v type="int" >        4        5        8       11       18 </v>
   <v type="int" >        4        5        8        8       18 </v>
   <v type="int" >        4        1        5        8       18 </v>
   <v type="int" >        4        5        5        8        8 </v>
   <v type="int" >       12        1        5        5        8 </v>
   <v type="int" >        6        1        1        5        5 </v>
   <v type="int" >        8        1        1        5        8 </v>
   <v type="int" >        4        1        1        2        8 </v>
   <v type="int" >        4        2        3        6       16 </v>
   <v type="int" >        4        3        7       16       17 </v>
   <v type="int" >       12        7       16       17       17 </v>
   <v type="int" >        8        7       17       17       17 </v>
   <v type="int" >       12        7        7        9       16 </v>
   <v type="int" >        4        6        6        7        7 </v>
   <v type="int" >       16        3        6        7       13 </v>
   <v type="int" >       12        6        7        7       13 </v>
   <v type="int" >        4        3        6        6       11 </v>
   <v type="int" >       12        3        6       11       13 </v>
   <v type="int" >       12        2        3       10       11 </v>
   <v type="int" >        4        3       10       11       19 </v>
   <v type="int" >        4        3       11       13       19 </v>
   <v type="int" >        4        2        8       10       18 </v>
   <v type="int" >        4        2       10       11       18 </v>
   <v type="int" >        4       10       18       19       19 </v>
   <v type="int" >        4        8        8       11       11 </v>
   <v type="int" >        4        8       10       11       11 </v>
   <v type="int" >        4       10       11       11       13 </v>
   <v type="int" >        4       11       11       13       19 </v>
   <v type="int" >        4        2        6        8       10 </v>
   <v type="int" >        4        6        8       10       11 </v>
   <v type="int" >       12        6       10       11       13 </v>
   <v type="int" >        8        2        3        6       10 </v>
   <v type="int" >        4        3        6        7       10 </v>
   <v type="int" >        4        6        7       10       13 </v>
   <v type="int" >        4       16       17       17       17 </v>
   <v type="int" >        4       17       17       17       17 </v>
   <v type="int" >        4        9       17       17       17 </v>
   <v type="int" >        8        7        7       15       17 </v>
   <v type="int" >        8        7        9       15       17 </v>
   <v type="int" >        4        6        7       13       16 </v>
   <v type="int" >        4        7        7       13       16 </v>
   <v type="int" >       12        7        7       13       15 </v>
   <v type="int" >        8        6        7       13       13 </v>
   <v type="int" >        4        7       13       13       21 </v>
   <v type="int" >        4        7       13       15       21 </v>
   <v type="int" >        4        6       11       13       19 </v>
   <v type="int" >        4        6       13       13       19 </v>
   <v type="int" >        4       13       19       19       23 </v>
   <v type="int" >        4       13       19       21       23 </v>
   <v type="int" >        4       11       18       19       19 </v>
   <v type="int" >        4       11       19       19       19 </v>
   <v type="int" >        4       19       19       19       23 </v>
   <v type="int" >        4       18       19       19       19 </v>
   <v type="int" >        4       19       19       19       21 </v>
   <v type="int" >        4       19       19       21       23 </v>
   <v type="int" >        4       11       13       18       19 </v>
   <v type="int" >        4       13       18       19       19 </v>
   <v type="int" >        8       13       19       19       21 </v>
   <v type="int" >       12       11       13       13       19 </v>
   <v type="int" >        4       13       13       15       19 </v>
   <v type="int" >        4       13       15       19       21 </v>
   <v type="int" >        4        6        7       11       13 </v>
   <v type="int" >        4        7       11       13       13 </v>
   <v type="int" >        8        7       13       13       15 </v>
   <v type="int" >        4        7        7        9       13 </v>
   <v type="int" >        4        7        9       13       15 </v>
   <v type="int" >        4        7        9       14       17 </v>
   <v type="int" >       12        7        9       14       15 </v>
   <v type="int" >        4        9       14       15       22 </v>
   <v type="int" >        4        7       13       15       20 </v>
   <v type="int" >        4        7       14       15       20 </v>
   <v type="int" >        4       15       20       21       24 </v>
   <v type="int" >        4       15       20       22       24 </v>
   <v type="int" >        4       13       19       21       21 </v>
   <v type="int" >        4       13       20       21       21 </v>
   <v type="int" >        4       20       21       21       24 </v>
   <v type="int" >        8       19       21       21       23 </v>
   <v type="int" >        8       21       21       23       24 </v>
   <v type="int" >        4       21       21       24       24 </v>
   <v type="int" >        4       19       19       20       23 </v>
   <v type="int" >       12       19       20       21       23 </v>
   <v type="int" >       12       20       21       23       24 </v>
   <v type="int" >        4       20       21       22       23 </v>
   <v type="int" >        4       20       22       23       24 </v>
   <v type="int" >        4       13       14       19       21 </v>
   <v type="int" >        4       14       19       20       21 </v>
   <v type="int" >        4       14       15       15       21 </v>
   <v type="int" >       16        7       13       14       15 </v>
   <v type="int" >        8        7       14       15       15 </v>
   <v type="int" >       16        7        7        9       15 </v>
   <v type="int" >        4        7        7       15       15 </v>
   <v type="int" >        4       14       20       22       22 </v>
   <v type="int" >        8       20       22       22       24 </v>
   <v type="int" >       16       22       22       24       25 </v>
   <v type="int" >       16       20       21       22       24 </v>
   <v type="int" >        8       21       22       24       24 </v>
   <v type="int" >        4       22       24       24       24 </v>
   <v type="int" >       16       22       24       24       25 </v>
   <v type="int" >        4       20       20       21       24 </v>
   <v type="int" >       12       20       22       24       24 </v>
   <v type="int" >        8       20       20       22       24 </v>
   <v type="int" >        4       20       21       24       24 </v>
   <v type="int" >        4       13       20       20       22 </v>
   <v type="int" >        8       13       20       21       22 </v>
   <v type="int" >        4       13       13       15       22 </v>
   <v type="int" >        4       13       13       21       22 </v>
   <v type="int" >        4        6        7       14       15 </v>
   <v type="int" >        4        6       13       14       15 </v>
   <v type="int" >        4        6       13       13       15 </v>
   <v type="int" >        4        6        7        7       15 </v>
   <v type="int" >        4        3        6        7       15 </v>
   <v type="int" >        4        3        6       13       15 </v>
   <v type="int" >        8       21       22       22       25 </v>
   <v type="int" >       12       21       22       24       25 </v>
   <v type="int" >        4       21       23       24       25 </v>
   <v type="int" >        4       19       20       22       24 </v>
   <v type="int" >        4       19       21       22       24 </v>
   <v type="int" >        8       19       21       23       24 </v>
   <v type="int" >        8       19       20       21       24 </v>
   <v type="int" >        4       19       19       21       24 </v>
   <v type="int" >        4       19       19       23       24 </v>
   <v type="int" >        4       11       13       20       21 </v>
   <v type="int" >        4       11       19       20       21 </v>
   <v type="int" >        4       11       19       19       21 </v>
   <v type="int" >        4       11       13       13       21 </v>
   <v type="int" >        4       10       11       13       21 </v>
   <v type="int" >        4       10       11       19       21 </v>
   <v type="int" >        4        2        6       13       13 </v>
   <v type="int" >        4        2       11       13       13 </v>
   <v type="int" >       12        2        3       10       13 </v>
   <v type="int" >        4        2       10       10       13 </v>
   <v type="int" >        4       18       19       21       23 </v>
   <v type="int" >        4       18       19       19       23 </v>
   <v type="int" >        4       11       18       19       23 </v>
   <v type="int" >        4        8       11       19       19 </v>
   <v type="int" >        4        8       18       19       19 </v>
   <v type="int" >        4        2        8       10       19 </v>
   <v type="int" >        4        2        8       11       19 </v>
   <v type="int" >       16        2        8       10       11 </v>
   <v type="int" >        4        8        8       10       11 </v>
   <v type="int" >       12        2        8        8       10 </v>
   <v type="int" >        8        2        8       10       10 </v>
   <v type="int" >        4        8       10       10       11 </v>
   <v type="int" >        4        1        8       11       18 </v>
   <v type="int" >        4        2        8        8        8 </v>
   <v type="int" >        8        2        2        8       10 </v>
   <v type="int" >        4        2        2        3       10 </v>
   <v type="int" >        4        3        4        7       17 </v>
   <v type="int" >        4        4        7       16       17 </v>
   <v type="int" >        4        7        7        7        9 </v>
   <v type="int" >        4        4        7        7       14 </v>
   <v type="int" >        4        7        7        7       14 </v>
   <v type="int" >       12        3        4       12       13 </v>
   <v type="int" >        4        4       12       13       20 </v>
   <v type="int" >        4        4       13       14       20 </v>
   <v type="int" >        4        3       10       12       19 </v>
   <v type="int" >        4        3       12       13       19 </v>
   <v type="int" >        4       12       13       19       21 </v>
   <v type="int" >        4       12       19       20       21 </v>
   <v type="int" >        4       10       13       19       19 </v>
   <v type="int" >        8       13       13       19       20 </v>
   <v type="int" >        4       10       11       13       13 </v>
   <v type="int" >        4       10       12       13       13 </v>
   <v type="int" >        4       12       13       13       14 </v>
   <v type="int" >        4       13       13       14       20 </v>
   <v type="int" >        4        3        7       10       12 </v>
   <v type="int" >        4        7       10       12       13 </v>
   <v type="int" >        8        7       12       13       14 </v>
   <v type="int" >        8        3        4        7       12 </v>
   <v type="int" >        4        7        7       12       14 </v>
   <v type="int" >        4        7        9       15       16 </v>
   <v type="int" >       12        7        9       15       15 </v>
   <v type="int" >        8        7        7       14       15 </v>
   <v type="int" >        4        7       14       15       22 </v>
   <v type="int" >        4        7       15       15       22 </v>
   <v type="int" >        4        7       13       14       21 </v>
   <v type="int" >        4        7       14       15       21 </v>
   <v type="int" >        4       14       20       21       24 </v>
   <v type="int" >        4       14       21       22       24 </v>
   <v type="int" >        4       13       19       20       23 </v>
   <v type="int" >        4       13       20       21       23 </v>
   <v type="int" >        4       20       23       24       24 </v>
   <v type="int" >        4       19       19       21       21 </v>
   <v type="int" >        4       19       20       21       21 </v>
   <v type="int" >        4       20       21       21       22 </v>
   <v type="int" >        4       21       21       22       24 </v>
   <v type="int" >        4       13       15       19       20 </v>
   <v type="int" >        4       15       19       20       21 </v>
   <v type="int" >        8       13       14       15       20 </v>
   <v type="int" >        4       14       15       15       20 </v>
   <v type="int" >        4       15       15       20       22 </v>
   <v type="int" >        4        7        9       13       14 </v>
   <v type="int" >        4        9       13       14       15 </v>
   <v type="int" >        8        9       14       15       15 </v>
   <v type="int" >        8        7        7        9       14 </v>
   <v type="int" >        4        9       15       15       22 </v>
   <v type="int" >        4       15       22       22       25 </v>
   <v type="int" >        4       15       21       22       24 </v>
   <v type="int" >        4       15       22       22       24 </v>
   <v type="int" >        8       22       24       24       26 </v>
   <v type="int" >        8       22       24       25       26 </v>
   <v type="int" >        4       21       23       24       24 </v>
   <v type="int" >        4       21       24       24       24 </v>
   <v type="int" >        8       24       24       24       26 </v>
   <v type="int" >        4       23       24       24       24 </v>
   <v type="int" >        4       24       24       24       25 </v>
   <v type="int" >       20       24       24       25       26 </v>
   <v type="int" >        4       21       22       23       24 </v>
   <v type="int" >        4       22       23       24       24 </v>
   <v type="int" >       12       21       22       22       24 </v>
   <v type="int" >        4       22       22       22       24 </v>
   <v type="int" >        4       15       15       21       22 </v>
   <v type="int" >        4       15       22       22       22 </v>
   <v type="int" >        4       15       15       15       22 </v>
   <v type="int" >        4       14       15       22       22 </v>
   <v type="int" >        4        7       15       15       15 </v>
   <v type="int" >        4        4        7        7       15 </v>
   <v type="int" >        4        4        7       14       15 </v>
   <v type="int" >        4       22       24       25       25 </v>
   <v type="int" >        8       24       25       25       26 </v>
   <v type="int" >        6       25       25       26       26 </v>
   <v type="int" >       12       24       25       26       26 </v>
   <v type="int" >        4       24       24       26       26 </v>
   <v type="int" >        8       21       24       24       25 </v>
   <v type="int" >        4       20       21       22       25 </v>
   <v type="int" >        4       20       21       24       25 </v>
   <v type="int" >        4       13       15       22       22 </v>
   <v type="int" >        4       13       21       22       22 </v>
   <v type="int" >        4       12       13       14       22 </v>
   <v type="int" >        4       12       13       20       22 </v>
   <v type="int" >        4        3        7       14       15 </v>
   <v type="int" >        4        3       13       14       15 </v>
   <v type="int" >        4       23       24       25       26 </v>
   <v type="int" >        4       23       24       24       26 </v>
   <v type="int" >        4       21       23       24       26 </v>
   <v type="int" >        4       19       21       24       24 </v>
   <v type="int" >        4       19       23       24       24 </v>
   <v type="int" >        4       13       19       20       24 </v>
   <v type="int" >        4       13       19       21       24 </v>
   <v type="int" >        4       10       13       20       21 </v>
   <v type="int" >        4       10       19       20       21 </v>
   <v type="int" >        4        3       10       12       20 </v>
   <v type="int" >        4        3       10       13       20 </v>
   <v type="int" >        8        3       10       12       13 </v>
   <v type="int" >        4       10       10       12       13 </v>
   <v type="int" >        8        3       10       10       12 </v>
   <v type="int" >        8        3       10       12       12 </v>
   <v type="int" >        4       10       12       12       13 </v>
   <v type="int" >        4       11       19       21       23 </v>
   <v type="int" >        4        6       11       13       21 </v>
   <v type="int" >        4        2       10       13       19 </v>
   <v type="int" >        4        2       11       13       19 </v>
   <v type="int" >        8        2        6       11       13 </v>
   <v type="int" >        4        2        6        6       13 </v>
   <v type="int" >        4        3       10       10       11 </v>
   <v type="int" >        4        3       11       13       13 </v>
   <v type="int" >        4        2        2        6       10 </v>
   <v type="int" >        4        6       10       12       13 </v>
   <v type="int" >        4        3        6       10       12 </v>
   <v type="int" >        4        2        3        3       10 </v>
   <v type="int" >        4        3        3       10       12 </v>
   <v type="int" >        4        3        3        4       12 </v>
   <v type="int" >        4        3        4        7       16 </v>
   <v type="int" >        4        6        7        7        7 </v>
   <v type="int" >        4        6        6        7       13 </v>
   <v type="int" >        8        3        7        7       14 </v>
   <v type="int" >        8        3        7       13       14 </v>
   <v type="int" >        4        3       12       14       20 </v>
   <v type="int" >        4        3       13       14       20 </v>
   <v type="int" >        4        4       12       12       20 </v>
   <v type="int" >        4        4       12       14       20 </v>
   <v type="int" >        4       12       14       20       22 </v>
   <v type="int" >        4       12       20       20       22 </v>
   <v type="int" >        4       12       13       14       21 </v>
   <v type="int" >        4       12       14       20       21 </v>
   <v type="int" >        4       14       21       22       22 </v>
   <v type="int" >        4       13       13       15       20 </v>
   <v type="int" >        4       14       15       20       20 </v>
   <v type="int" >        4       15       20       20       22 </v>
   <v type="int" >        4       12       13       14       14 </v>
   <v type="int" >        4       13       14       14       20 </v>
   <v type="int" >        2       14       14       20       20 </v>
   <v type="int" >        2       12       12       14       14 </v>
   <v type="int" >        8        4        7       12       12 </v>
   <v type="int" >        4        7       12       12       14 </v>
   <v type="int" >        4        3        6        7       12 </v>
   <v type="int" >        4        6        7       12       13 </v>
   <v type="int" >        4        6        7       15       16 </v>
   <v type="int" >        8        6        7       13       15 </v>
   <v type="int" >        4        6       13       15       21 </v>
   <v type="int" >        4        7       13       14       22 </v>
   <v type="int" >        4        7       13       15       22 </v>
   <v type="int" >        4       13       20       22       24 </v>
   <v type="int" >        4       13       21       22       24 </v>
   <v type="int" >        4       14       20       20       24 </v>
   <v type="int" >        4       14       20       22       24 </v>
   <v type="int" >        4       20       22       24       25 </v>
   <v type="int" >        4       20       24       24       25 </v>
   <v type="int" >        6       22       22       24       24 </v>
   <v type="int" >        4       20       21       22       22 </v>
   <v type="int" >        2       20       20       22       22 </v>
   <v type="int" >        4        7        7       13       14 </v>
   <v type="int" >        4        3        7       13       13 </v>
   <v type="int" >        4       15       21       22       25 </v>
   <v type="int" >        4       21       24       25       26 </v>
   <v type="int" >        4       24       26       26       26 </v>
   <v type="int" >        6       24       24       25       25 </v>
   <v type="int" >        4        4        7       13       15 </v>
   <v type="int" >        4        4       13       14       15 </v>
   <v type="int" >        8        4       12       12       13 </v>
   <v type="int" >        4       25       26       26       26 </v>
   <v type="int" >        2       26       26       26       26 </v>
   <v type="int" >        4        4       12       12       14 </v>
   <v type="int" >        4       12       12       12       14 </v>
   <v type="int" >        8        4       12       12       12 </v>
   <v type="int" >        4        3        4        4       12 </v>
   <v type="int" >        4        4        4       12       12 </v>
   <v type="int" >        4        1        5        8       11 </v>
   <v type="int" >        4        1        2        6       11 </v>
   <v type="int" >        4        2        8       10       13 </v>
   <v type="int" >        4        2        8       11       13 </v>
   <v type="int" >        4        2        3        7       13 </v>
   <v type="int" >        4        2        6        7       13 </v>
   <v type="int" >        4        3       10       12       14 </v>
   <v type="int" >        4        3       10       13       14 </v>
   <v type="int" >        4        3        4        6       13 </v>
   <v type="int" >        4        4        6        7       13 </v>
   <v type="int" >        4        3       10       11       12 </v>
   <v type="int" >        4        3       11       12       13 </v>
   <v type="int" >        4        2        2        3       11 </v>
   <v type="int" >        6        2        2        8        8 </v>
   <v type="int" >        6        1        1        8        8 </v>
   <v type="int" >        4        5        5        5        8 </v>
   <v type="int" >        4        6       11       13       15 </v>
   <v type="int" >        4        6        7        9       15 </v>
   <v type="int" >        4        7       13       15       15 </v>
   <v type="int" >        4        7        7        7       15 </v>
   <v type="int" >        4        7       13       13       14 </v>
   <v type="int" >        4        3        7        7       13 </v>
   <v type="int" >        4        6       10       13       13 </v>
   <v type="int" >        4        2        6       10       10 </v>
   <v type="int" >        4        3        6       10       10 </v>
   <v type="int" >        4        2        2       10       11 </v>
   <v type="int" >        2        2        2       10       10 </v>
   <v type="int" >        4        1        8        8       10 </v>
   <v type="int" >        4        1        2        8       10 </v>
   <v type="int" >        4        2        3        8       10 </v>
   <v type="int" >        4        3        8       10       10 </v>
   <v type="int" >        4        4        7        9       14 </v>
   <v type="int" >        4        7       12       13       15 </v>
   <v type="int" >        4        7       12       14       15 </v>
   <v type="int" >        4        3        7       12       12 </v>
   <v type="int" >        4        3        3       10       13 </v>
   <v type="int" >        4        3        3       12       13 </v>
   <v type="int" >        2        3        3       12       12 </v>
   <v type="int" >        2        3        3       10       10 </v>
   <v type="int" >        4        2       10       10       12 </v>
   <v type="int" >        4        2        3       10       12 </v>
   <v type="int" >        4        3        4       10       12 </v>
   <v type="int" >        4        4       10       12       12 </v>
   <v type="int" >        4        4        4       12       14 </v>
   <v type="int" >        4        3       12       12       12 </v>
   <v type="int" >        4        3        4       12       12 </v>
   <v type="int" >        4        1        5        5        5 </v>
   <v type="int" >        2        5        5        5        5 </v>
  </varray>
  <i name="volumeweight">      0.00032552 </i>
 </kpoints>
 <parameters>
  <separator name="general" >
   <i type="string" name="SYSTEM">Fe BCC</i>
   <i type="logical" name="LCOMPAT"> F  </i>
  </separator>
  <separator name="electronic" >
   <i type="string" name="PREC">accura</i>
   <i name="ENMAX">    400.00000000</i>
   <i name="ENAUG">    511.36800000</i>
   <i name="EDIFF">      0.00000100</i>
   <i type="int" name="IALGO">    38</i>
   <i type="int" name="IWAVPR">    10</i>
   <i type="int" name="NBANDS">    12</i>
   <i name="NELECT">      8.00000000</i>
   <i type="int" name="TURBO">     0</i>
   <i type="int" name="IRESTART">     0</i>
   <i type="int" name="NREBOOT">     0</i>
   <i type="int" name="NMIN">     0</i>
   <i name="EREF">      0.00000000</i>
   <separator name="electronic smearing" >
    <i type="int" name="ISMEAR">    -5</i>
    <i name="SIGMA">      0.20000000</i>
    <i name="KSPACING">      0.50000000</i>
    <i type="logical" name="KGAMMA"> T  </i>
   </separator>
   <separator name="electronic projectors" >
    <i type="logical" name="LREAL"> F  </i>
    <v name="ROPT">      0.00000000</v>
    <i type="int" name="LMAXPAW">  -100</i>
    <i type="int" name="LMAXMIX">     2</i>
    <i type="logical" name="NLSPLINE"> F  </i>
   </separator>
   <separator name="electronic startup" >
    <i type="int" name="ISTART">     0</i>
    <i type="int" name="ICHARG">     2</i>
    <i type="int" name="INIWAV">     1</i>
   </separator>
   <separator name="electronic spin" >
    <i type="int" name="ISPIN">     2</i>
    <i type="logical" name="LNONCOLLINEAR"> F  </i>
    <v name="MAGMOM">      4.00000000</v>
    <i name="NUPDOWN">     -1.00000000</i>
    <i type="logical" name="LSORBIT"> F  </i>
    <v name="SAXIS">      0.00000000      0.00000000      1.00000000</v>
    <i type="logical" name="LSPIRAL"> F  </i>
    <v name="QSPIRAL">      0.00000000      0.00000000      0.00000000</v>
    <i type="logical" name="LZEROZ"> F  </i>
   </separator>
   <separator name="electronic exchange-correlation" >
    <i type="logical" name="LASPH"> F  </i>
    <i type="logical" name="LMETAGGA"> F  </i>
   </separator>
   <separator name="electronic convergence" >
    <i type="int" name="NELM">    60</i>
    <i type="int" name="NELMDL">    -5</i>
    <i type="int" name="NELMIN">     2</i>
    <i name="ENINI">    400.00000000</i>
    <separator name="electronic convergence detail" >
     <i type="logical" name="LDIAG"> T  </i>
     <i type="logical" name="LSUBROT"> F  </i>
     <i name="WEIMIN">      0.00000000</i>
     <i name="EBREAK">      0.00000002</i>
     <i name="DEPER">      0.30000000</i>
     <i type="int" name="NRMM">     4</i>
     <i name="TIME">      0.40000000</i>
    </separator>
   </separator>
   <separator name="electronic mixer" >
    <i name="AMIX">      0.40000000</i>
    <i name="BMIX">      1.00000000</i>
    <i name="AMIN">      0.10000000</i>
    <i name="AMIX_MAG">      1.60000000</i>
    <i name="BMIX_MAG">      1.00000000</i>
    <separator name="electronic mixer details" >
     <i type="int" name="IMIX">     4</i>
     <i type="logical" name="MIXFIRST"> F  </i>
     <i type="int" name="MAXMIX">   -45</i>
     <i name="WC">    100.00000000</i>
     <i type="int" name="INIMIX">     1</i>
     <i type="int" name="MIXPRE">     1</i>
     <i type="int" name="MREMOVE">     5</i>
    </separator>
   </separator>
   <separator name="electronic dipolcorrection" >
    <i type="logical" name="LDIPOL"> F  </i>
    <i type="logical" name="LMONO"> F  </i>
    <i type="int" name="IDIPOL">     0</i>
    <i name="EPSILON">      1.00000000</i>
    <v name="DIPOL">   -100.00000000   -100.00000000   -100.00000000</v>
    <i name="EFIELD">      0.00000000</i>
   </separator>
  </separator>
  <separator name="grids" >
   <i type="int" name="NGX">    16</i>
   <i type="int" name="NGY">    16</i>
   <i type="int" name="NGZ">    16</i>
   <i type="int" name="NGXF">    32</i>
   <i type="int" name="NGYF">    32</i>
   <i type="int" name="NGZF">    32</i>
   <i type="logical" name="ADDGRID"> F  </i>
  </separator>
  <separator name="ionic" >
   <i type="int" name="NSW">     0</i>
   <i type="int" name="IBRION">    -1</i>
   <i type="int" name="ISIF">     2</i>
   <i name="PSTRESS">      0.00000000</i>
   <i name="EDIFFG">      0.00001000</i>
   <i type="int" name="NFREE">     0</i>
   <i name="POTIM">      0.50000000</i>
   <i name="SMASS">     -3.00000000</i>
   <i name="SCALEE">      1.00000000</i>
  </separator>
  <separator name="ionic md" >
   <i name="TEBEG">      0.00010000</i>
   <i name="TEEND">      0.00010000</i>
   <i type="int" name="NBLOCK">     1</i>
   <i type="int" name="KBLOCK">     1</i>
   <i type="int" name="NPACO">   256</i>
   <i name="APACO">     16.00000000</i>
  </separator>
  <separator name="symmetry" >
   <i type="int" name="ISYM">     2</i>
   <i name="SYMPREC">      0.00001000</i>
  </separator>
  <separator name="dos" >
   <i type="logical" name="LORBIT"> F  </i>
   <v name="RWIGS">     -1.00000000</v>
   <i type="int" name="NEDOS">   301</i>
   <i name="EMIN">     10.00000000</i>
   <i name="EMAX">    -10.00000000</i>
   <i name="EFERMI">      0.00000000</i>
  </separator>
  <separator name="writing" >
   <i type="int" name="NWRITE">     2</i>
   <i type="logical" name="LWAVE"> T  </i>
   <i type="logical" name="LCHARG"> T  </i>
   <i type="logical" name="LPARD"> F  </i>
   <i type="logical" name="LVTOT"> F  </i>
   <i type="logical" name="LVHAR"> F  </i>
   <i type="logical" name="LELF"> F  </i>
   <i type="logical" name="LOPTICS"> F  </i>
   <v name="STM">      0.00000000      0.00000000      0.00000000      0.00000000      0.00000000      0.00000000      0.00000000</v>
  </separator>
  <separator name="performance" >
   <i type="int" name="NPAR">     4</i>
   <i type="int" name="NSIM">     4</i>
   <i type="int" name="NBLK">    -1</i>
   <i type="logical" name="LPLANE"> T  </i>
   <i type="logical" name="LSCALAPACK"> F  </i>
   <i type="logical" name="LSCAAWARE"> F  </i>
   <i type="logical" name="LSCALU"> F  </i>
   <i type="logical" name="LASYNC"> F  </i>
   <i type="logical" name="LORBITALREAL"> F  </i>
  </separator>
  <separator name="miscellaneous" >
   <i type="int" name="IDIOT">     3</i>
   <i type="logical" name="LMUSIC"> F  </i>
   <v name="POMASS">     55.84700000</v>
   <v name="DARWINR">      0.00000000</v>
   <v name="DARWINV">      1.00000000</v>
   <i type="logical" name="LCORR"> T  </i>
  </separator>
  <i type="logical" name="GGA_COMPAT"> T  </i>
  <i type="logical" name="LBERRY"> F  </i>
  <i type="int" name="ICORELEVEL">     0</i>
  <i type="logical" name="LDAU"> F  </i>
  <i type="int" name="I_CONSTRAINED_M">     0</i>
  <separator name="electronic exchange-correlation" >
   <i type="string" name="GGA">--</i>
   <i type="int" name="VOSKOWN">     0</i>
   <i type="logical" name="LHFCALC"> F  </i>
   <i type="string" name="PRECFOCK"></i>
   <i type="logical" name="LSYMGRAD"> F  </i>
   <i type="logical" name="LHFONE"> F  </i>
   <i type="logical" name="LRHFCALC"> F  </i>
   <i type="logical" name="LTHOMAS"> F  </i>
   <i type="logical" name="LMODELHF"> F  </i>
   <i name="ENCUT4O">     -1.00000000</i>
   <i type="int" name="EXXOEP">     0</i>
   <i type="int" name="FOURORBIT">     0</i>
   <i name="AEXX">      0.00000000</i>
   <i name="HFALPHA">      0.00000000</i>
   <i name="MCALPHA">      0.00000000</i>
   <i name="ALDAX">      1.00000000</i>
   <i name="AGGAX">      1.00000000</i>
   <i name="ALDAC">      1.00000000</i>
   <i name="AGGAC">      1.00000000</i>
   <i type="int" name="NKREDX">     1</i>
   <i type="int" name="NKREDY">     1</i>
   <i type="int" name="NKREDZ">     1</i>
   <i type="logical" name="SHIFTRED"> F  </i>
   <i type="logical" name="ODDONLY"> F  </i>
   <i type="logical" name="EVENONLY"> F  </i>
   <i type="int" name="LMAXFOCK">     0</i>
   <i type="int" name="NMAXFOCKAE">     0</i>
   <i type="logical" name="LFOCKAEDFT"> F  </i>
   <i name="HFSCREEN">      0.00000000</i>
   <i name="HFSCREENC">      0.00000000</i>
   <i type="int" name="NBANDSGWLOW">     0</i>
  </separator>
  <separator name="vdW DFT" >
   <i type="logical" name="LUSE_VDW"> F  </i>
   <i name="Zab_VDW">     -0.84910000</i>
   <i name="PARAM1">      0.12340000</i>
   <i name="PARAM2">      1.00000000</i>
   <i name="PARAM3">      0.00000000</i>
  </separator>
  <separator name="model GW" >
   <i type="int" name="MODEL_GW">     0</i>
   <i name="MODEL_EPS0">      6.58560000</i>
   <i name="MODEL_ALPHA">      1.00000000</i>
  </separator>
  <separator name="linear response parameters" >
   <i type="logical" name="LEPSILON"> F  </i>
   <i type="logical" name="LRPA"> F  </i>
   <i type="logical" name="LNABLA"> F  </i>
   <i type="logical" name="LVEL"> F  </i>
   <i type="int" name="KINTER">     0</i>
   <i name="CSHIFT">      0.10000000</i>
   <i name="OMEGAMAX">     -1.00000000</i>
   <i name="DEG_THRESHOLD">      0.00200000</i>
  </separator>
  <separator name="orbital magnetization" >
   <i type="logical" name="NUCIND"> F  </i>
   <v name="MAGPOS">      0.00000000      0.00000000      0.00000000</v>
   <i type="logical" name="LNICSALL"> T  </i>
   <i type="logical" name="ORBITALMAG"> F  </i>
   <i type="logical" name="LMAGBLOCH"> F  </i>
   <i type="logical" name="LCHIMAG"> F  </i>
   <i type="logical" name="LGAUGE"> T  </i>
   <i type="int" name="MAGATOM">     0</i>
   <v name="MAGDIPOL">      0.00000000      0.00000000      0.00000000</v>
   <v name="AVECCONST">      0.00000000      0.00000000      0.00000000</v>
  </separator>
  <separator name="response functions" >
   <i type="logical" name="LADDER"> F  </i>
   <i type="logical" name="LFXC"> F  </i>
   <i type="logical" name="LHARTREE"> T  </i>
   <i type="int" name="IBSE">     0</i>
   <v type="int" name="KPOINT">    -1     0     0     0</v>
   <i type="logical" name="LTCTE"> F  </i>
   <i type="logical" name="LTETE"> F  </i>
   <i type="logical" name="LTRIPLET"> F  </i>
   <i type="logical" name="LFXCEPS"> F  </i>
   <i type="logical" name="LFXHEG"> F  </i>
   <i type="int" name="NATURALO">     0</i>
   <i type="logical" name="L2ORDER"> F  </i>
   <i type="logical" name="LUSEW"> F  </i>
   <i name="ENCUTGW">     -2.00000000</i>
   <i name="ENCUTGWSOFT">     -2.00000000</i>
   <i name="ENCUTLF">     -1.00000000</i>
   <i type="int" name="LMAXMP2">    -1</i>
   <i name="SCISSOR">      0.00000000</i>
   <i type="int" name="NOMEGA">     0</i>
   <i type="int" name="NOMEGAR">     0</i>
   <i type="int" name="NBANDSGW">    -1</i>
   <i type="int" name="NBANDSO">    -1</i>
   <i type="int" name="NBANDSV">    -1</i>
   <i type="int" name="NELM">     1</i>
   <i type="int" name="NELMHF">     1</i>
   <i type="int" name="DIM">     3</i>
   <i type="int" name="ANTIRES">     0</i>
   <i name="OMEGAMAX">    -30.00000000</i>
   <i name="OMEGAMIN">    -30.00000000</i>
   <i name="OMEGATL">   -200.00000000</i>
   <i type="int" name="OMEGAGRID">     0</i>
   <i name="CSHIFT">     -0.10000000</i>
   <i type="logical" name="SELFENERGY"> F  </i>
   <i type="logical" name="LSPECTRAL"> F  </i>
   <i type="logical" name="LSPECTRALGW"> F  </i>
   <i type="logical" name="LSINGLES"> F  </i>
   <i type="logical" name="LFERMIGW"> F  </i>
   <i type="logical" name="ODDONLYGW"> F  </i>
   <i type="logical" name="EVENONLYGW"> F  </i>
   <i type="int" name="NKREDLFX">     1</i>
   <i type="int" name="NKREDLFY">     1</i>
   <i type="int" name="NKREDLFZ">     1</i>
   <i type="int" name="MAXMEM">  1800</i>
   <i type="int" name="TELESCOPE">     0</i>
   <i type="int" name="TAUPAR">     1</i>
   <i type="int" name="OMEGAPAR">    -1</i>
   <i name="LAMBDA">      1.00000000</i>
  </separator>
  <separator name="External order field" >
   <i name="OFIELD_KAPPA">      0.00000000</i>
   <v name="OFIELD_K">      0.00000000      0.00000000      0.00000000</v>
   <i name="OFIELD_Q6_NEAR">      0.00000000</i>
   <i name="OFIELD_Q6_FAR">      0.00000000</i>
   <i name="OFIELD_A">      0.00000000</i>
  </separator>
 </parameters>
 <atominfo>
  <atoms>       1 </atoms>
  <types>       1 </types>
  <array name="atoms" >
   <dimension dim="1">ion</dimension>
   <field type="string">element</field>
   <field type="int">atomtype</field>
   <set>
    <rc><c>Fe</c><c>   1</c></rc>
   </set>
  </array>
  <array name="atomtypes" >
   <dimension dim="1">type</dimension>
   <field type="int">atomspertype</field>
   <field type="string">element</field>
   <field>mass</field>
   <field>valence</field>
   <field type="string">pseudopotential</field>
   <set>
    <rc><c>   1</c><c>Fe</c><c>     55.84700000</c><c>      8.00000000</c><c>  PAW Fe 03Mar1998                      </c></rc>
   </set>
  </array>
 </atominfo>
 <structure name="initialpos" >
  <crystal>
   <varray name="basis" >
    <v>      -1.40000000       1.40000000       1.40000000 </v>
    <v>       1.40000000      -1.40000000       1.40000000 </v>
    <v>       1.40000000       1.40000000      -1.40000000 </v>
   </varray>
   <i name="volume">     10.97600000 </i>
   <varray name="rec_basis" >
    <v>       0.00000000       0.35714286       0.35714286 </v>
    <v>       0.35714286       0.00000000       0.35714286 </v>
    <v>       0.35714286       0.35714286       0.00000000 </v>
   </varray>
  </crystal>
  <varray name="positions" >
   <v>       0.00000000       0.00000000       0.00000000 </v>
  </varray>
 </structure>
 <calculation>
  <scstep>
   <time name="dav">    3.30    3.01</time>
   <time name="total">    3.40    3.11</time>
   <energy>
    <i name="alphaZ">     61.02080539 </i>
    <i name="ewald">   -598.90499562 </i>
    <i name="hartreedc">   -108.42751235 </i>
    <i name="XCdc">      6.59191481 </i>
    <i name="pawpsdc">    552.76102510 </i>
    <i name="pawaedc">   -562.19386350 </i>
    <i name="eentropy">      0.00000000 </i>
    <i name="bandstr">     70.28570681 </i>
    <i name="atom">    597.35192723 </i>
    <i name="e_fr_energy">     18.48500787 </i>
    <i name="e_wo_entrp">     18.48500787 </i>
    <i name="e_0_energy">     18.48500787 </i>
   </energy>
  </scstep>
  <scstep>
   <time name="dav">    3.68    3.39</time>
   <time name="total">    3.78    3.49</time>
   <energy>
    <i name="e_fr_energy">     -9.23791894 </i>
    <i name="e_wo_entrp">     -9.23791894 </i>
    <i name="e_0_energy">     -9.23791894 </i>
   </energy>
  </scstep>
  <scstep>
   <time name="dav">    4.55    4.30</time>
   <time name="total">    4.87    5.30</time>
   <energy>
    <i name="e_fr_energy">     -9.81665176 </i>
    <i name="e_wo_entrp">     -9.81665176 </i>
    <i name="e_0_energy">     -9.81665176 </i>
   </energy>
  </scstep>
  <scstep>
   <time name="dav">    4.22    4.02</time>
   <time name="total">    4.30    4.10</time>
   <energy>
    <i name="e_fr_energy">     -9.81885980 </i>
    <i name="e_wo_entrp">     -9.81885980 </i>
    <i name="e_0_energy">     -9.81885980 </i>
   </energy>
  </scstep>
  <scstep>
   <time name="dav">    4.40    4.23</time>
   <time name="total">    4.55    4.36</time>
   <energy>
    <i name="e_fr_energy">     -9.81887403 </i>
    <i name="e_wo_entrp">     -9.81887403 </i>
    <i name="e_0_energy">     -9.81887403 </i>
   </energy>
  </scstep>
  <scstep>
   <time name="dav">    3.73    3.41</time>
   <time name="total">    3.92    3.56</time>
   <energy>
    <i name="e_fr_energy">     -9.26026946 </i>
    <i name="e_wo_entrp">     -9.26026946 </i>
    <i name="e_0_energy">     -9.26026946 </i>
   </energy>
  </scstep>
  <scstep>
   <time name="dav">    4.50    4.24</time>
   <time name="total">    4.68    4.40</time>
   <energy>
    <i name="e_fr_energy">     -9.21890565 </i>
    <i name="e_wo_entrp">     -9.21890565 </i>
    <i name="e_0_energy">     -9.21890565 </i>
   </energy>
  </scstep>
  <scstep>
   <time name="dav">    4.27    3.91</time>
   <time name="total">    4.59    4.43</time>
   <energy>
    <i name="e_fr_energy">     -9.20709678 </i>
    <i name="e_wo_entrp">     -9.20709678 </i>
    <i name="e_0_energy">     -9.20709678 </i>
   </energy>
  </scstep>
  <scstep>
   <time name="dav">    4.88    4.65</time>
   <time name="total">    5.04    4.81</time>
   <energy>
    <i name="e_fr_energy">     -9.19772306 </i>
    <i name="e_wo_entrp">     -9.19772306 </i>
    <i name="e_0_energy">     -9.19772306 </i>
   </energy>
  </scstep>
  <scstep>
   <time name="dav">    4.57    4.13</time>
   <time name="total">    4.71    4.28</time>
   <energy>
    <i name="e_fr_energy">     -9.19781722 </i>
    <i name="e_wo_entrp">     -9.19781722 </i>
    <i name="e_0_energy">     -9.19781722 </i>
   </energy>
  </scstep>
  <scstep>
   <time name="dav">    4.24    3.99</time>
   <time name="total">    4.40    4.13</time>
   <energy>
    <i name="e_fr_energy">     -9.19801973 </i>
    <i name="e_wo_entrp">     -9.19801973 </i>
    <i name="e_0_energy">     -9.19801973 </i>
   </energy>
  </scstep>
  <scstep>
   <time name="dav">    3.47    3.24</time>
   <time name="total">    3.62    3.40</time>
   <energy>
    <i name="e_fr_energy">     -9.19802914 </i>
    <i name="e_wo_entrp">     -9.19802914 </i>
    <i name="e_0_energy">     -9.19802914 </i>
   </energy>
  </scstep>
  <scstep>
   <time name="dav">    2.45    2.17</time>
   <time name="total">    2.59    2.32</time>
   <energy>
    <i name="e_fr_energy">     -9.19800683 </i>
    <i name="e_wo_entrp">     -9.19800683 </i>
    <i name="e_0_energy">     -9.19800683 </i>
   </energy>
  </scstep>
  <scstep>
   <time name="dav">    2.25    2.06</time>
   <time name="total">    2.39    2.22</time>
   <energy>
    <i name="e_fr_energy">     -9.19800252 </i>
    <i name="e_wo_entrp">     -9.19800252 </i>
    <i name="e_0_energy">     -9.19800252 </i>
   </energy>
  </scstep>
  <scstep>
   <time name="dav">    2.05    1.84</time>
   <time name="total">    2.34    2.43</time>
   <energy>
    <i name="e_fr_energy">     -9.19800073 </i>
    <i name="e_wo_entrp">     -9.19800073 </i>
    <i name="e_0_energy">     -9.19800073 </i>
   </energy>
  </scstep>
  <scstep>
   <time name="dav">    2.14    1.91</time>
   <time name="total">    2.34    2.47</time>
   <energy>
    <i name="alphaZ">     61.02080539 </i>
    <i name="ewald">   -598.90499562 </i>
    <i name="hartreedc">    -92.14117162 </i>
    <i name="XCdc">      4.63573327 </i>
    <i name="pawpsdc">    728.40065665 </i>
    <i name="pawaedc">   -739.13642282 </i>
    <i name="eentropy">      0.00000000 </i>
    <i name="bandstr">     29.57546692 </i>
    <i name="atom">    597.35192723 </i>
    <i name="e_fr_energy">     -9.19800059 </i>
    <i name="e_wo_entrp">     -9.19800059 </i>
    <i name="e_0_energy">     -9.19800059 </i>
   </energy>
  </scstep>
  <structure>
   <crystal>
    <varray name="basis" >
     <v>      -1.40000000       1.40000000       1.40000000 </v>
     <v>       1.40000000      -1.40000000       1.40000000 </v>
     <v>       1.40000000       1.40000000      -1.40000000 </v>
    </varray>
    <i name="volume">     10.97600000 </i>
    <varray name="rec_basis" >
     <v>       0.00000000       0.35714286       0.35714286 </v>
     <v>       0.35714286       0.00000000       0.35714286 </v>
     <v>       0.35714286       0.35714286       0.00000000 </v>
    </varray>
   </crystal>
   <varray name="positions" >
    <v>       0.00000000       0.00000000       0.00000000 </v>
   </varray>
  </structure>
  <varray name="forces" >
   <v>       0.00000000      -0.00000000       0.00000000 </v>
  </varray>
  <varray name="stress" >
   <v>    -124.99440784       0.00000000       0.00000000 </v>
   <v>       0.00000000    -124.99440784      -0.00000000 </v>
   <v>       0.00000000      -0.00000000    -124.99440784 </v>
  </varray>
  <energy>
   <i name="e_fr_energy">     -9.19800059 </i>
   <i name="e_wo_entrp">     -9.19800059 </i>
   <i name="e_0_energy">      0.00000000 </i>
  </energy>
  <time name="totalsc">   61.96   59.84</time>
  <eigenvalues>
   <array>
    <dimension dim="1">band</dimension>
    <dimension dim="2">kpoint</dimension>
    <dimension dim="3">spin</dimension>
    <field>eigene</field>
    <field>occ</field>
    <set>
     <set comment="spin 1">
      <set comment="kpoint 1">
       <r>   -1.6971    1.0000 </r>
       <r>    3.4782    1.0000 </r>
       <r>    3.4782    1.0000 </r>
       <r>    4.3420    1.0000 </r>
       <r>    5.0554    1.0000 </r>
       <r>    5.0554    1.0030 </r>
       <r>   27.7205    0.0000 </r>
       <r>   27.7205    0.0000 </r>
       <r>   31.9929    0.0000 </r>
       <r>   32.1668    0.0000 </r>
       <r>   37.5406    0.0000 </r>
       <r>   37.5406    0.0000 </r>
      </set>
      <set comment="kpoint 2">
       <r>   -0.0633    1.0000 </r>
       <r>    3.0344    1.0000 </r>
       <r>    3.2611    1.0000 </r>
       <r>    4.9774    1.0000 </r>
       <r>    5.1908    1.0014 </r>
       <r>    5.4341    0.8759 </r>
       <r>   22.3260    0.0000 </r>
       <r>   25.3756    0.0000 </r>
       <r>   27.9969    0.0000 </r>
       <r>   32.5930    0.0000 </r>
       <r>   37.0379    0.0000 </r>
       <r>   38.1515    0.0000 </r>
      </set>
      <set comment="kpoint 3">
       <r>    1.1072    1.0000 </r>
       <r>    2.6547    1.0000 </r>
       <r>    4.0406    1.0000 </r>
       <r>    5.1220    1.0000 </r>
       <r>    5.3000    1.0345 </r>
       <r>    6.9177    0.0016 </r>
       <r>   16.8425    0.0000 </r>
       <r>   23.6315    0.0000 </r>
       <r>   25.5618    0.0000 </r>
       <r>   32.1478    0.0000 </r>
       <r>   36.3546    0.0000 </r>
       <r>   41.5120    0.0000 </r>
      </set>
      <set comment="kpoint 4">
       <r>    1.1651    1.0000 </r>
       <r>    2.5092    1.0000 </r>
       <r>    5.0895    1.0000 </r>
       <r>    5.1935    1.0000 </r>
       <r>    5.3452    1.0755 </r>
       <r>    8.2548   -0.0050 </r>
       <r>   13.7639    0.0000 </r>
       <r>   22.9855    0.0000 </r>
       <r>   24.6490    0.0000 </r>
       <r>   31.9389    0.0000 </r>
       <r>   36.2736    0.0000 </r>
       <r>   41.3246    0.0000 </r>
      </set>
      <set comment="kpoint 5">
       <r>   -2.3314    1.0000 </r>
       <r>    3.6981    1.0000 </r>
       <r>    3.6981    1.0000 </r>
       <r>    3.7936    1.0000 </r>
       <r>    4.9740    1.0000 </r>
       <r>    5.1929    1.0000 </r>
       <r>   29.5731    0.0000 </r>
       <r>   30.9439    0.0000 </r>
       <r>   30.9439    0.0000 </r>
       <r>   34.3814    0.0000 </r>
       <r>   36.6638    0.0000 </r>
       <r>   36.6638    0.0000 </r>
      </set>
      <set comment="kpoint 6">
       <r>    1.4586    1.0000 </r>
       <r>    2.7342    1.0000 </r>
       <r>    2.9348    1.0000 </r>
       <r>    5.0633    1.0000 </r>
       <r>    5.3302    1.0011 </r>
       <r>    7.1419   -0.0175 </r>
       <r>   19.7690    0.0000 </r>
       <r>   20.6348    0.0000 </r>
       <r>   24.6265    0.0000 </r>
       <r>   34.5699    0.0000 </r>
       <r>   38.4471    0.0000 </r>
       <r>   40.8987    0.0000 </r>
      </set>
      <set comment="kpoint 7">
       <r>    1.8258    1.0000 </r>
       <r>    2.5488    1.0000 </r>
       <r>    3.6034    1.0000 </r>
       <r>    5.2133    1.0000 </r>
       <r>    5.4263    1.0104 </r>
       <r>    9.6245   -0.0032 </r>
       <r>   15.1290    0.0000 </r>
       <r>   19.0098    0.0000 </r>
       <r>   23.2916    0.0000 </r>
       <r>   34.9872    0.0000 </r>
       <r>   39.4267    0.0000 </r>
       <r>   41.5789    0.0000 </r>
      </set>
      <set comment="kpoint 8">
       <r>   -1.1063    1.0000 </r>
       <r>    3.4078    1.0000 </r>
       <r>    3.6191    1.0000 </r>
       <r>    4.4562    1.0000 </r>
       <r>    4.7021    1.0000 </r>
       <r>    5.3000    1.0086 </r>
       <r>   25.2027    0.0000 </r>
       <r>   28.5649    0.0000 </r>
       <r>   29.5430    0.0000 </r>
       <r>   33.7363    0.0000 </r>
       <r>   33.9255    0.0000 </r>
       <r>   35.5167    0.0000 </r>
      </set>
      <set comment="kpoint 9">
       <r>    2.1611    1.0000 </r>
       <r>    2.9312    1.0000 </r>
       <r>    2.9312    1.0000 </r>
       <r>    5.3641    1.0000 </r>
       <r>    5.3641    1.0010 </r>
       <r>   13.1982    0.0000 </r>
       <r>   13.1982    0.0000 </r>
       <r>   15.8372    0.0000 </r>
       <r>   22.8143    0.0000 </r>
       <r>   37.4673    0.0000 </r>
       <r>   37.4673    0.0000 </r>
       <r>   44.9473    0.0000 </r>
      </set>
      <set comment="kpoint 10">
       <r>    0.5683    1.0000 </r>
       <r>    2.9778    1.0000 </r>
       <r>    3.6708    1.0000 </r>
       <r>    4.8974    1.0000 </r>
       <r>    5.4826    1.0166 </r>
       <r>    5.5485    0.6953 </r>
       <r>   19.4224    0.0000 </r>
       <r>   26.1026    0.0000 </r>
       <r>   27.4569    0.0000 </r>
       <r>   31.9812    0.0000 </r>
       <r>   33.9849    0.0000 </r>
       <r>   36.8800    0.0000 </r>
      </set>
      <set comment="kpoint 11">
       <r>    0.3812    1.0000 </r>
       <r>    3.1892    1.0000 </r>
       <r>    3.3887    1.0000 </r>
       <r>    4.5474    1.0000 </r>
       <r>    5.2731    1.0031 </r>
       <r>    5.6718    0.7250 </r>
       <r>   22.3862    0.0000 </r>
       <r>   23.4396    0.0000 </r>
       <r>   29.9359    0.0000 </r>
       <r>   30.3258    0.0000 </r>
       <r>   34.1394    0.0000 </r>
       <r>   38.8378    0.0000 </r>
      </set>
      <set comment="kpoint 12">
       <r>    1.0379    1.0000 </r>
       <r>    2.6870    1.0000 </r>
       <r>    4.5334    1.0000 </r>
       <r>    5.0908    1.0000 </r>
       <r>    6.4316    0.3477 </r>
       <r>    6.7159    0.0051 </r>
       <r>   14.6606    0.0000 </r>
       <r>   24.6839    0.0000 </r>
       <r>   25.7898    0.0000 </r>
       <r>   31.2643    0.0000 </r>
       <r>   34.3146    0.0000 </r>
       <r>   38.4924    0.0000 </r>
      </set>
      <set comment="kpoint 13">
       <r>    1.4729    1.0000 </r>
       <r>    2.8521    1.0000 </r>
       <r>    3.4618    1.0000 </r>
       <r>    4.8637    1.0000 </r>
       <r>    5.7042    1.0179 </r>
       <r>    7.4147   -0.0373 </r>
       <r>   17.2130    0.0000 </r>
       <r>   21.1441    0.0000 </r>
       <r>   27.7735    0.0000 </r>
       <r>   31.0336    0.0000 </r>
       <r>   34.7333    0.0000 </r>
       <r>   39.4248    0.0000 </r>
      </set>
      <set comment="kpoint 14">
       <r>    1.5133    1.0000 </r>
       <r>    2.8330    1.0000 </r>
       <r>    3.6634    1.0000 </r>
       <r>    4.9833    1.0000 </r>
       <r>    6.0616    0.7552 </r>
       <r>    9.3920   -0.0018 </r>
       <r>   13.8476    0.0000 </r>
       <r>   20.4253    0.0000 </r>
       <r>   26.8991    0.0000 </r>
       <r>   31.4201    0.0000 </r>
       <r>   35.6186    0.0000 </r>
       <r>   38.7317    0.0000 </r>
      </set>
      <set comment="kpoint 15">
       <r>    2.2425    1.0000 </r>
       <r>    2.5377    1.0000 </r>
       <r>    3.1067    1.0000 </r>
       <r>    5.1809    1.0000 </r>
       <r>    5.6695    1.0610 </r>
       <r>   10.7116   -0.0005 </r>
       <r>   15.2014    0.0000 </r>
       <r>   16.6337    0.0000 </r>
       <r>   28.2439    0.0000 </r>
       <r>   31.3589    0.0000 </r>
       <r>   33.6183    0.0000 </r>
       <r>   41.1871    0.0000 </r>
      </set>
      <set comment="kpoint 16">
       <r>    2.5292    1.0000 </r>
       <r>    2.5292    1.0000 </r>
       <r>    2.6855    1.0000 </r>
       <r>    5.3139    1.0000 </r>
       <r>    5.3139    1.0000 </r>
       <r>    9.6373   -0.0042 </r>
       <r>   18.0923    0.0000 </r>
       <r>   18.0923    0.0000 </r>
       <r>   19.5598    0.0000 </r>
       <r>   39.3236    0.0000 </r>
       <r>   42.1607    0.0000 </r>
       <r>   42.1607    0.0000 </r>
      </set>
      <set comment="kpoint 17">
       <r>    2.4008    1.0000 </r>
       <r>    2.4840    1.0000 </r>
       <r>    3.1744    1.0000 </r>
       <r>    5.3497    1.0000 </r>
       <r>    5.3729    1.0000 </r>
       <r>   12.4681    0.0000 </r>
       <r>   14.4013    0.0000 </r>
       <r>   17.5147    0.0000 </r>
       <r>   18.5929    0.0000 </r>
       <r>   40.4337    0.0000 </r>
       <r>   43.9212    0.0000 </r>
       <r>   44.4397    0.0000 </r>
      </set>
      <set comment="kpoint 18">
       <r>   -0.0335    1.0000 </r>
       <r>    3.8506    1.0000 </r>
       <r>    3.8561    1.0000 </r>
       <r>    3.8561    1.0000 </r>
       <r>    4.4710    1.0000 </r>
       <r>    5.6819    0.8633 </r>
       <r>   25.2632    0.0000 </r>
       <r>   26.4210    0.0000 </r>
       <r>   26.4210    0.0000 </r>
       <r>   28.3948    0.0000 </r>
       <r>   37.9658    0.0000 </r>
       <r>   37.9658    0.0000 </r>
      </set>
      <set comment="kpoint 19">
       <r>    1.3162    1.0000 </r>
       <r>    3.0030    1.0000 </r>
       <r>    3.7048    1.0000 </r>
       <r>    4.4344    1.0000 </r>
       <r>    5.4219    1.0424 </r>
       <r>    6.5279    0.0769 </r>
       <r>   20.2787    0.0000 </r>
       <r>   23.7661    0.0000 </r>
       <r>   24.8773    0.0000 </r>
       <r>   28.9649    0.0000 </r>
       <r>   37.0119    0.0000 </r>
       <r>   38.8442    0.0000 </r>
      </set>
      <set comment="kpoint 20">
       <r>    1.6269    1.0000 </r>
       <r>    2.9179    1.0000 </r>
       <r>    3.4904    1.0000 </r>
       <r>    4.6812    1.0000 </r>
       <r>    6.3432    0.1984 </r>
       <r>    8.9859   -0.0106 </r>
       <r>   15.1473    0.0000 </r>
       <r>   22.0924    0.0000 </r>
       <r>   24.0215    0.0000 </r>
       <r>   31.4631    0.0000 </r>
       <r>   36.0621    0.0000 </r>
       <r>   36.8618    0.0000 </r>
      </set>
      <set comment="kpoint 21">
       <r>    1.9667    1.0000 </r>
       <r>    2.3273    1.0000 </r>
       <r>    3.7940    1.0000 </r>
       <r>    4.8559    1.0000 </r>
       <r>    5.8859    1.0092 </r>
       <r>    8.9000   -0.0134 </r>
       <r>   18.0786    0.0000 </r>
       <r>   18.7282    0.0000 </r>
       <r>   26.3278    0.0000 </r>
       <r>   27.9366    0.0000 </r>
       <r>   35.7507    0.0000 </r>
       <r>   38.8848    0.0000 </r>
      </set>
      <set comment="kpoint 22">
       <r>    1.9287    1.0000 </r>
       <r>    2.3329    1.0000 </r>
       <r>    3.5791    1.0000 </r>
       <r>    5.1943    1.0000 </r>
       <r>    6.1340    0.4083 </r>
       <r>   11.9202    0.0000 </r>
       <r>   14.2602    0.0000 </r>
       <r>   17.6996    0.0000 </r>
       <r>   26.3492    0.0000 </r>
       <r>   29.5224    0.0000 </r>
       <r>   33.3212    0.0000 </r>
       <r>   37.8485    0.0000 </r>
      </set>
      <set comment="kpoint 23">
       <r>    1.7422    1.0000 </r>
       <r>    2.2860    1.0000 </r>
       <r>    4.6855    1.0000 </r>
       <r>    4.6855    1.0000 </r>
       <r>    5.4614    1.1808 </r>
       <r>    8.2534   -0.0192 </r>
       <r>   20.7390    0.0000 </r>
       <r>   20.7390    0.0000 </r>
       <r>   23.0119    0.0000 </r>
       <r>   25.1909    0.0000 </r>
       <r>   37.3130    0.0000 </r>
       <r>   41.9044    0.0000 </r>
      </set>
      <set comment="kpoint 24">
       <r>    1.6475    1.0000 </r>
       <r>    1.7906    1.0000 </r>
       <r>    4.8366    1.0000 </r>
       <r>    5.1427    1.0000 </r>
       <r>    6.2210    0.1205 </r>
       <r>   11.3957    0.0000 </r>
       <r>   16.2725    0.0000 </r>
       <r>   18.8438    0.0000 </r>
       <r>   23.2255    0.0000 </r>
       <r>   26.1406    0.0000 </r>
       <r>   32.6597    0.0000 </r>
       <r>   41.4020    0.0000 </r>
      </set>
      <set comment="kpoint 25">
       <r>    1.4997    1.0000 </r>
       <r>    1.4997    1.0000 </r>
       <r>    4.9498    1.0000 </r>
       <r>    6.0488    1.0000 </r>
       <r>    6.0488    0.4145 </r>
       <r>   14.8353    0.0000 </r>
       <r>   14.8353    0.0000 </r>
       <r>   16.0227    0.0000 </r>
       <r>   24.6797    0.0000 </r>
       <r>   24.6797    0.0000 </r>
       <r>   30.1802    0.0000 </r>
       <r>   41.9824    0.0000 </r>
      </set>
      <set comment="kpoint 26">
       <r>    1.2196    1.0000 </r>
       <r>    1.2197    1.0000 </r>
       <r>    6.0035    1.0000 </r>
       <r>    6.0035    1.0000 </r>
       <r>    6.1835    0.0130 </r>
       <r>   14.1880    0.0000 </r>
       <r>   16.7271    0.0000 </r>
       <r>   16.7271    0.0000 </r>
       <r>   22.1827    0.0000 </r>
       <r>   23.3601    0.0000 </r>
       <r>   28.6531    0.0000 </r>
       <r>   45.1032    0.0000 </r>
      </set>
     </set>
     <set comment="spin 2">
      <set comment="kpoint 1">
       <r>   -1.3355    1.0000 </r>
       <r>    5.1501    1.0000 </r>
       <r>    5.1501    1.0000 </r>
       <r>    6.0937    0.2910 </r>
       <r>    7.2294    0.0000 </r>
       <r>    7.2294    0.0000 </r>
       <r>   28.1912    0.0000 </r>
       <r>   28.1912    0.0000 </r>
       <r>   32.3001    0.0000 </r>
       <r>   32.7937    0.0000 </r>
       <r>   37.9929    0.0000 </r>
       <r>   37.9929    0.0000 </r>
      </set>
      <set comment="kpoint 2">
       <r>    0.3732    1.0000 </r>
       <r>    4.6394    1.0000 </r>
       <r>    4.8275    1.0000 </r>
       <r>    7.0934   -0.0144 </r>
       <r>    7.2284    0.0000 </r>
       <r>    7.3944    0.0000 </r>
       <r>   23.0691    0.0000 </r>
       <r>   25.9119    0.0000 </r>
       <r>   28.7262    0.0000 </r>
       <r>   32.8917    0.0000 </r>
       <r>   37.7099    0.0000 </r>
       <r>   38.5847    0.0000 </r>
      </set>
      <set comment="kpoint 3">
       <r>    2.0331    1.0000 </r>
       <r>    4.2029    1.0000 </r>
       <r>    5.1342    1.0000 </r>
       <r>    7.2196    0.0000 </r>
       <r>    7.5375    0.0000 </r>
       <r>    8.6268    0.0000 </r>
       <r>   17.8234    0.0000 </r>
       <r>   24.1390    0.0000 </r>
       <r>   26.2278    0.0000 </r>
       <r>   32.6349    0.0000 </r>
       <r>   37.0314    0.0000 </r>
       <r>   41.8947    0.0000 </r>
      </set>
      <set comment="kpoint 4">
       <r>    2.3585    1.0000 </r>
       <r>    4.0363    1.0000 </r>
       <r>    6.0739    1.0000 </r>
       <r>    7.2986    0.0000 </r>
       <r>    7.5991    0.0000 </r>
       <r>    9.5993    0.0000 </r>
       <r>   15.0099    0.0000 </r>
       <r>   23.4699    0.0000 </r>
       <r>   25.2761    0.0000 </r>
       <r>   32.4844    0.0000 </r>
       <r>   36.9751    0.0000 </r>
       <r>   41.6182    0.0000 </r>
      </set>
      <set comment="kpoint 5">
       <r>   -1.9774    1.0000 </r>
       <r>    5.4005    1.0000 </r>
       <r>    5.4005    1.0000 </r>
       <r>    5.5127    1.1898 </r>
       <r>    7.1370    0.0000 </r>
       <r>    7.4008    0.0000 </r>
       <r>   29.8521    0.0000 </r>
       <r>   31.1977    0.0000 </r>
       <r>   31.1977    0.0000 </r>
       <r>   34.8926    0.0000 </r>
       <r>   37.4155    0.0000 </r>
       <r>   37.4155    0.0000 </r>
      </set>
      <set comment="kpoint 6">
       <r>    2.1389    1.0000 </r>
       <r>    4.2445    1.0000 </r>
       <r>    4.3800    1.0000 </r>
       <r>    7.1864    0.0000 </r>
       <r>    7.5435    0.0000 </r>
       <r>    8.8387    0.0000 </r>
       <r>   20.6025    0.0000 </r>
       <r>   21.3532    0.0000 </r>
       <r>   25.2737    0.0000 </r>
       <r>   34.8582    0.0000 </r>
       <r>   38.9479    0.0000 </r>
       <r>   41.3960    0.0000 </r>
      </set>
      <set comment="kpoint 7">
       <r>    3.0377    1.0000 </r>
       <r>    4.0145    1.0000 </r>
       <r>    4.7886    1.0000 </r>
       <r>    7.3432    0.0000 </r>
       <r>    7.6264    0.0000 </r>
       <r>   10.9591    0.0000 </r>
       <r>   16.1617    0.0000 </r>
       <r>   19.7522    0.0000 </r>
       <r>   23.9176    0.0000 </r>
       <r>   35.3707    0.0000 </r>
       <r>   39.8074    0.0000 </r>
       <r>   42.1558    0.0000 </r>
      </set>
      <set comment="kpoint 8">
       <r>   -0.7286    1.0000 </r>
       <r>    5.0660    1.0000 </r>
       <r>    5.2757    1.0000 </r>
       <r>    6.2255    0.1005 </r>
       <r>    6.7818    0.0000 </r>
       <r>    7.5171    0.0000 </r>
       <r>   25.8313    0.0000 </r>
       <r>   28.9525    0.0000 </r>
       <r>   30.1121    0.0000 </r>
       <r>   34.2642    0.0000 </r>
       <r>   34.5670    0.0000 </r>
       <r>   36.0384    0.0000 </r>
      </set>
      <set comment="kpoint 9">
       <r>    3.5436    1.0000 </r>
       <r>    4.2416    1.0000 </r>
       <r>    4.2416    1.0000 </r>
       <r>    7.5241    0.0000 </r>
       <r>    7.5241    0.0000 </r>
       <r>   14.2705    0.0000 </r>
       <r>   14.2705    0.0000 </r>
       <r>   16.7042    0.0000 </r>
       <r>   23.4638    0.0000 </r>
       <r>   37.8115    0.0000 </r>
       <r>   37.8115    0.0000 </r>
       <r>   45.6497    0.0000 </r>
      </set>
      <set comment="kpoint 10">
       <r>    1.1899    1.0000 </r>
       <r>    4.5761    1.0000 </r>
       <r>    5.0629    1.0000 </r>
       <r>    6.8967   -0.0115 </r>
       <r>    7.4169    0.0000 </r>
       <r>    7.6557    0.0000 </r>
       <r>   20.2992    0.0000 </r>
       <r>   26.4753    0.0000 </r>
       <r>   28.1572    0.0000 </r>
       <r>   32.6127    0.0000 </r>
       <r>   34.6133    0.0000 </r>
       <r>   37.3478    0.0000 </r>
      </set>
      <set comment="kpoint 11">
       <r>    0.8681    1.0000 </r>
       <r>    4.8222    1.0000 </r>
       <r>    4.9726    1.0006 </r>
       <r>    6.5276   -0.0146 </r>
       <r>    7.1385    0.0000 </r>
       <r>    7.7869    0.0000 </r>
       <r>   23.1630    0.0000 </r>
       <r>   24.1061    0.0000 </r>
       <r>   30.4337    0.0000 </r>
       <r>   30.8866    0.0000 </r>
       <r>   34.7054    0.0000 </r>
       <r>   39.3172    0.0000 </r>
      </set>
      <set comment="kpoint 12">
       <r>    2.1709    1.0000 </r>
       <r>    4.2477    1.0000 </r>
       <r>    5.8466    1.0000 </r>
       <r>    7.1280    0.0000 </r>
       <r>    8.1733    0.0000 </r>
       <r>    8.3979    0.0000 </r>
       <r>   15.8212    0.0000 </r>
       <r>   25.0231    0.0000 </r>
       <r>   26.4395    0.0000 </r>
       <r>   31.9546    0.0000 </r>
       <r>   35.0184    0.0000 </r>
       <r>   38.8739    0.0000 </r>
      </set>
      <set comment="kpoint 13">
       <r>    2.4465    1.0000 </r>
       <r>    4.3871    1.0000 </r>
       <r>    4.8709    1.0012 </r>
       <r>    6.8275   -0.0019 </r>
       <r>    7.7460    0.0000 </r>
       <r>    9.0417    0.0000 </r>
       <r>   18.1670    0.0000 </r>
       <r>   21.8562    0.0000 </r>
       <r>   28.2627    0.0000 </r>
       <r>   31.6226    0.0000 </r>
       <r>   35.2636    0.0000 </r>
       <r>   40.0015    0.0000 </r>
      </set>
      <set comment="kpoint 14">
       <r>    2.7736    1.0000 </r>
       <r>    4.3794    1.0000 </r>
       <r>    5.0325    1.0009 </r>
       <r>    6.9834    0.0000 </r>
       <r>    8.0311    0.0000 </r>
       <r>   10.6003    0.0000 </r>
       <r>   15.0464    0.0000 </r>
       <r>   21.1238    0.0000 </r>
       <r>   27.3623    0.0000 </r>
       <r>   32.0835    0.0000 </r>
       <r>   36.0146    0.0000 </r>
       <r>   39.3714    0.0000 </r>
      </set>
[...]
       </set>
       <set comment="band 5">
        <r>  0.0077  0.0018  0.0018  0.0139  0.0942  0.3369  0.1079  0.0942  0.3236 </r>
       </set>
       <set comment="band 6">
        <r>  0.0631  0.0470  0.0470  0.2315  0.0909  0.1398  0.0479  0.0909  0.1438 </r>
       </set>
       <set comment="band 7">
        <r>  0.0000  0.2092  0.2092  0.0000  0.1379  0.0000  0.1430  0.1379  0.0477 </r>
       </set>
       <set comment="band 8">
        <r>  0.4649  0.0439  0.0439  0.0283  0.0807  0.0907  0.0015  0.0807  0.0044 </r>
       </set>
       <set comment="band 9">
        <r>  0.0247  0.1869  0.1869  0.0908  0.0560  0.0915  0.0005  0.0560  0.0016 </r>
       </set>
       <set comment="band 10">
        <r>  0.0000  0.0441  0.0441  0.0000  0.0567  0.0000  0.3306  0.0567  0.1102 </r>
       </set>
       <set comment="band 11">
        <r>  0.0260  0.0094  0.0094  0.0290  0.0240  0.1572  0.1019  0.0240  0.3057 </r>
       </set>
       <set comment="band 12">
        <r>  0.1116  0.0356  0.0356  0.1739  0.2453  0.2688  0.0214  0.2453  0.0642 </r>
       </set>
      </set>
      <set comment="kpoint 16">
       <set comment="band 1">
        <r>  0.1536  0.0887  0.0887  0.0887  0.1415  0.1415  0.0000  0.1415  0.0000 </r>
       </set>
       <set comment="band 2">
        <r>  0.0000  0.0261  0.0170  0.0362  0.1724  0.3675  0.0156  0.2651  0.0329 </r>
       </set>
       <set comment="band 3">
        <r>  0.0000  0.0268  0.0359  0.0167  0.3642  0.1692  0.0329  0.2715  0.0156 </r>
       </set>
       <set comment="band 4">
        <r>  0.0000  0.0001  0.0000  0.0001  0.0021  0.0310  0.0490  0.0275  0.8764 </r>
       </set>
       <set comment="band 5">
        <r>  0.0000  0.0000  0.0001  0.0000  0.0383  0.0094  0.8764  0.0129  0.0490 </r>
       </set>
       <set comment="band 6">
        <r>  0.0781  0.0646  0.0646  0.0646  0.2156  0.2156  0.0000  0.2156  0.0000 </r>
       </set>
       <set comment="band 7">
        <r>  0.0000  0.2192  0.0497  0.0798  0.0609  0.0977  0.0088  0.2685  0.0324 </r>
       </set>
       <set comment="band 8">
        <r>  0.0000  0.0132  0.1828  0.1527  0.2238  0.1870  0.0324  0.0162  0.0088 </r>
       </set>
       <set comment="band 9">
        <r>  0.5693  0.0807  0.0807  0.0807  0.0014  0.0014  0.0000  0.0014  0.0000 </r>
       </set>
       <set comment="band 10">
        <r>  0.0000  0.0000  0.0000  0.0000  0.0000  0.0000  0.0000  0.0000  0.0000 </r>
       </set>
       <set comment="band 11">
        <r>  0.0000  0.0023  0.0038  0.0014  0.3108  0.1117  0.0623  0.1839  0.0187 </r>
       </set>
       <set comment="band 12">
        <r>  0.0000  0.0027  0.0012  0.0036  0.0935  0.2926  0.0187  0.2203  0.0623 </r>
       </set>
      </set>
      <set comment="kpoint 17">
       <set comment="band 1">
        <r>  0.0333  0.0000  0.0000  0.1301  0.0000  0.6901  0.0135  0.0000  0.0404 </r>
       </set>
       <set comment="band 2">
        <r>  0.0000  0.0448  0.0448  0.0000  0.4219  0.0000  0.0000  0.4219  0.0000 </r>
       </set>
       <set comment="band 3">
        <r>  0.0000  0.1195  0.1195  0.0000  0.3261  0.0000  0.0000  0.3261  0.0000 </r>
       </set>
       <set comment="band 4">
        <r>  0.0005  0.0000  0.0000  0.0005  0.0000  0.0700  0.2292  0.0000  0.6877 </r>
       </set>
       <set comment="band 5">
        <r>  0.0000  0.0000  0.0000  0.0000  0.0000  0.0000  0.7420  0.0000  0.2473 </r>
       </set>
       <set comment="band 6">
        <r>  0.0000  0.1893  0.1893  0.0000  0.2402  0.0000  0.0000  0.2402  0.0000 </r>
       </set>
       <set comment="band 7">
        <r>  0.2465  0.0000  0.0000  0.1906  0.0000  0.4078  0.0069  0.0000  0.0206 </r>
       </set>
       <set comment="band 8">
        <r>  0.0000  0.1782  0.1782  0.0000  0.2279  0.0000  0.0000  0.2279  0.0000 </r>
       </set>
       <set comment="band 9">
        <r>  0.5312  0.0000  0.0000  0.2195  0.0000  0.0527  0.0020  0.0000  0.0061 </r>
       </set>
       <set comment="band 10">
        <r>  0.0000  0.0002  0.0002  0.0000  0.1382  0.0000  0.0000  0.1382  0.0000 </r>
       </set>
       <set comment="band 11">
        <r>  0.0000  0.0259  0.0259  0.0000  0.0688  0.0000  0.0000  0.0688  0.0000 </r>
       </set>
       <set comment="band 12">
        <r>  0.0127  0.0000  0.0000  0.0960  0.0000  0.1380  0.1195  0.0000  0.3587 </r>
       </set>
      </set>
      <set comment="kpoint 18">
       <set comment="band 1">
        <r>  0.5369  0.0000  0.0000  0.1839  0.0000  0.0000  0.0128  0.0000  0.0383 </r>
       </set>
       <set comment="band 2">
        <r>  0.0000  0.0125  0.0125  0.0000  0.4721  0.0000  0.0000  0.4721  0.0000 </r>
       </set>
       <set comment="band 3">
        <r>  0.0000  0.0125  0.0125  0.0000  0.4721  0.0000  0.0000  0.4721  0.0000 </r>
       </set>
       <set comment="band 4">
        <r>  0.0000  0.0000  0.0000  0.0000  0.0000  0.0000  0.6876  0.0000  0.2292 </r>
       </set>
       <set comment="band 5">
        <r>  0.0000  0.0000  0.0000  0.0000  0.0000  0.9797  0.0000  0.0000  0.0000 </r>
       </set>
       <set comment="band 6">
        <r>  0.0320  0.0000  0.0000  0.0087  0.0000  0.0000  0.2357  0.0000  0.7071 </r>
       </set>
       <set comment="band 7">
        <r>  0.0000  0.0000  0.0000  0.0000  0.0000  0.0000  0.4804  0.0000  0.1601 </r>
       </set>
       <set comment="band 8">
        <r>  0.0000  0.1806  0.1805  0.0000  0.2994  0.0000  0.0000  0.2993  0.0000 </r>
       </set>
       <set comment="band 9">
        <r>  0.0000  0.1805  0.1806  0.0000  0.2993  0.0000  0.0000  0.2994  0.0000 </r>
       </set>
       <set comment="band 10">
        <r>  0.1620  0.0000  0.0000  0.2879  0.0000  0.0000  0.0000  0.0000  0.0000 </r>
       </set>
       <set comment="band 11">
        <r>  0.0000  0.1604  0.1619  0.0000  0.0057  0.0000  0.0000  0.0057  0.0000 </r>
       </set>
       <set comment="band 12">
        <r>  0.0000  0.1619  0.1604  0.0000  0.0057  0.0000  0.0000  0.0057  0.0000 </r>
       </set>
      </set>
      <set comment="kpoint 19">
       <set comment="band 1">
        <r>  0.3213  0.0070  0.0000  0.2231  0.0573  0.0000  0.0787  0.0000  0.1099 </r>
       </set>
       <set comment="band 2">
        <r>  0.0026  0.0282  0.0000  0.0127  0.1725  0.0000  0.4346  0.0000  0.2461 </r>
       </set>
       <set comment="band 3">
        <r>  0.0000  0.0000  0.0249  0.0000  0.0000  0.2809  0.0000  0.6584  0.0000 </r>
       </set>
       <set comment="band 4">
        <r>  0.0000  0.0262  0.0000  0.0088  0.6708  0.0000  0.2441  0.0000  0.0063 </r>
       </set>
       <set comment="band 5">
        <r>  0.0000  0.0000  0.0095  0.0000  0.0000  0.6973  0.0000  0.2721  0.0000 </r>
       </set>
       <set comment="band 6">
        <r>  0.1007  0.0093  0.0000  0.0615  0.0114  0.0000  0.1644  0.0000  0.6161 </r>
       </set>
       <set comment="band 7">
        <r>  0.0932  0.2774  0.0000  0.0359  0.2915  0.0000  0.1238  0.0000  0.0538 </r>
       </set>
       <set comment="band 8">
        <r>  0.0000  0.0000  0.5014  0.0000  0.0000  0.0106  0.0000  0.4338  0.0000 </r>
       </set>
       <set comment="band 9">
        <r>  0.0932  0.0008  0.0000  0.0778  0.0272  0.0000  0.3817  0.0000  0.0508 </r>
       </set>
       <set comment="band 10">
        <r>  0.0618  0.2043  0.0000  0.0690  0.1279  0.0000  0.0444  0.0000  0.1366 </r>
       </set>
       <set comment="band 11">
        <r>  0.0000  0.0000  0.1694  0.0000  0.0000  0.6373  0.0000  0.1541  0.0000 </r>
       </set>
       <set comment="band 12">
        <r>  0.0660  0.1740  0.0000  0.0114  0.1069  0.0000  0.1950  0.0000  0.0975 </r>
       </set>
      </set>
      <set comment="kpoint 20">
       <set comment="band 1">
        <r>  0.1125  0.0012  0.0000  0.0784  0.2631  0.0000  0.3837  0.0000  0.0275 </r>
       </set>
       <set comment="band 2">
        <r>  0.0062  0.0888  0.0000  0.0953  0.0182  0.0000  0.0839  0.0000  0.5647 </r>
       </set>
       <set comment="band 3">
        <r>  0.0000  0.0000  0.0244  0.0000  0.0000  0.4189  0.0000  0.5182  0.0000 </r>
       </set>
       <set comment="band 4">
        <r>  0.0225  0.0121  0.0000  0.0004  0.5183  0.0000  0.3964  0.0000  0.0058 </r>
       </set>
       <set comment="band 5">
        <r>  0.0000  0.0000  0.0027  0.0000  0.0000  0.5562  0.0000  0.4308  0.0000 </r>
       </set>
       <set comment="band 6">
        <r>  0.0754  0.1147  0.0000  0.2378  0.0401  0.0000  0.0314  0.0000  0.4007 </r>
       </set>
       <set comment="band 7">
        <r>  0.2740  0.1980  0.0000  0.0024  0.3039  0.0000  0.1011  0.0000  0.0280 </r>
       </set>
       <set comment="band 8">
        <r>  0.0000  0.0000  0.5976  0.0000  0.0000  0.0678  0.0000  0.2221  0.0000 </r>
       </set>
       <set comment="band 9">
        <r>  0.1063  0.0242  0.0000  0.0555  0.0079  0.0000  0.4134  0.0000  0.0056 </r>
       </set>
       <set comment="band 10">
        <r>  0.0110  0.1550  0.0000  0.0008  0.0286  0.0000  0.0380  0.0000  0.4094 </r>
       </set>
       <set comment="band 11">
        <r>  0.0000  0.0000  0.1427  0.0000  0.0000  0.5531  0.0000  0.3625  0.0000 </r>
       </set>
       <set comment="band 12">
        <r>  0.0022  0.1433  0.0000  0.2165  0.0043  0.0000  0.3940  0.0000  0.1120 </r>
       </set>
      </set>
      <set comment="kpoint 21">
       <set comment="band 1">
        <r>  0.1191  0.0047  0.0047  0.1807  0.0476  0.0003  0.1081  0.0476  0.3242 </r>
       </set>
       <set comment="band 2">
        <r>  0.0000  0.0198  0.0198  0.0000  0.0579  0.0000  0.5467  0.0579  0.1822 </r>
       </set>
       <set comment="band 3">
        <r>  0.0072  0.0161  0.0161  0.0085  0.2519  0.3239  0.0187  0.2519  0.0560 </r>
       </set>
       <set comment="band 4">
        <r>  0.0000  0.0175  0.0175  0.0000  0.3903  0.0000  0.1109  0.3903  0.0369 </r>
       </set>
       <set comment="band 5">
        <r>  0.0139  0.0003  0.0003  0.0073  0.1163  0.6110  0.0287  0.1163  0.0861 </r>
       </set>
       <set comment="band 6">
        <r>  0.1406  0.0202  0.0202  0.2109  0.0463  0.0408  0.0977  0.0463  0.2932 </r>
       </set>
       <set comment="band 7">
        <r>  0.0000  0.2193  0.2193  0.0000  0.1155  0.0000  0.1742  0.1155  0.0581 </r>
       </set>
       <set comment="band 8">
        <r>  0.2398  0.1506  0.1506  0.0322  0.1111  0.0285  0.0039  0.1111  0.0118 </r>
       </set>
       <set comment="band 9">
        <r>  0.0000  0.0618  0.0618  0.0000  0.0494  0.0000  0.4310  0.0494  0.1437 </r>
       </set>
       <set comment="band 10">
        <r>  0.0876  0.1205  0.1205  0.0356  0.0117  0.0019  0.0545  0.0117  0.1634 </r>
       </set>
       <set comment="band 11">
        <r>  0.0010  0.0671  0.0671  0.1287  0.0563  0.2500  0.0642  0.0563  0.1925 </r>
       </set>
       <set comment="band 12">
        <r>  0.1608  0.0000  0.0000  0.1746  0.1267  0.2514  0.0417  0.1267  0.1252 </r>
       </set>
      </set>
      <set comment="kpoint 22">
       <set comment="band 1">
        <r>  0.0259  0.0233  0.0212  0.0233  0.1462  0.0000  0.6347  0.0000  0.0000 </r>
       </set>
       <set comment="band 2">
        <r>  0.0000  0.0706  0.0000  0.0706  0.0000  0.0164  0.0000  0.0164  0.6882 </r>
       </set>
       <set comment="band 3">
        <r>  0.0335  0.0012  0.0214  0.0012  0.1648  0.3424  0.0400  0.3424  0.0000 </r>
       </set>
       <set comment="band 4">
        <r>  0.0107  0.0075  0.0137  0.0075  0.5218  0.1122  0.1801  0.1122  0.0000 </r>
       </set>
       <set comment="band 5">
        <r>  0.0000  0.0108  0.0000  0.0108  0.0000  0.4411  0.0000  0.4411  0.0798 </r>
       </set>
       <set comment="band 6">
        <r>  0.0000  0.2545  0.0000  0.2545  0.0000  0.0465  0.0000  0.0465  0.2779 </r>
       </set>
       <set comment="band 7">
        <r>  0.2676  0.0957  0.0435  0.0957  0.2592  0.0002  0.1350  0.0002  0.0000 </r>
       </set>
       <set comment="band 8">
        <r>  0.1702  0.0027  0.3903  0.0027  0.0025  0.0977  0.0833  0.0977  0.0000 </r>
       </set>
       <set comment="band 9">
        <r>  0.0301  0.0026  0.1504  0.0026  0.0164  0.0144  0.5046  0.0144  0.0000 </r>
       </set>
       <set comment="band 10">
        <r>  0.0000  0.0477  0.0000  0.0477  0.0000  0.0060  0.0000  0.0060  0.5992 </r>
       </set>
       <set comment="band 11">
        <r>  0.0398  0.2156  0.0859  0.2156  0.0000  0.0436  0.1161  0.0436  0.0000 </r>
       </set>
       <set comment="band 12">
        <r>  0.2085  0.0219  0.0078  0.0219  0.2077  0.3100  0.0094  0.3100  0.0000 </r>
       </set>
      </set>
      <set comment="kpoint 23">
       <set comment="band 1">
        <r>  0.1265  0.0000  0.0000  0.2071  0.0000  0.0000  0.1229  0.0000  0.3688 </r>
       </set>
       <set comment="band 2">
        <r>  0.0000  0.0000  0.0000  0.0000  0.0000  0.0000  0.6612  0.0000  0.2204 </r>
       </set>
       <set comment="band 3">
        <r>  0.0000  0.0256  0.0256  0.0000  0.4544  0.0000  0.0000  0.4544  0.0000 </r>
       </set>
       <set comment="band 4">
        <r>  0.0000  0.0256  0.0256  0.0000  0.4544  0.0000  0.0000  0.4544  0.0000 </r>
       </set>
       <set comment="band 5">
        <r>  0.0000  0.0000  0.0000  0.0000  0.0000  0.9789  0.0000  0.0000  0.0000 </r>
       </set>
       <set comment="band 6">
        <r>  0.2010  0.0000  0.0000  0.1982  0.0000  0.0000  0.1292  0.0000  0.3876 </r>
       </set>
       <set comment="band 7">
        <r>  0.0000  0.2919  0.2919  0.0000  0.1565  0.0000  0.0000  0.1565  0.0000 </r>
       </set>
       <set comment="band 8">
        <r>  0.0000  0.2919  0.2919  0.0000  0.1565  0.0000  0.0000  0.1565  0.0000 </r>
       </set>
       <set comment="band 9">
        <r>  0.0000  0.0000  0.0000  0.0000  0.0000  0.0000  0.6510  0.0000  0.2170 </r>
       </set>
       <set comment="band 10">
        <r>  0.2875  0.0000  0.0000  0.0776  0.0000  0.0000  0.0583  0.0000  0.1750 </r>
       </set>
       <set comment="band 11">
        <r>  0.1258  0.0000  0.0000  0.3100  0.0000  0.0000  0.1172  0.0000  0.3517 </r>
       </set>
       <set comment="band 12">
        <r>  0.0000  0.0000  0.0000  0.0000  0.0000  1.0941  0.0000  0.0000  0.0000 </r>
       </set>
      </set>
      <set comment="kpoint 24">
       <set comment="band 1">
        <r>  0.0212  0.0004  0.0000  0.0871  0.0216  0.0000  0.4537  0.0000  0.2774 </r>
       </set>
       <set comment="band 2">
        <r>  0.0001  0.0247  0.0000  0.0124  0.0096  0.0000  0.3431  0.0000  0.4815 </r>
       </set>
       <set comment="band 3">
        <r>  0.0000  0.0000  0.0407  0.0000  0.0000  0.3347  0.0000  0.5866  0.0000 </r>
       </set>
       <set comment="band 4">
        <r>  0.0197  0.0350  0.0000  0.0067  0.8415  0.0000  0.0534  0.0000  0.0016 </r>
       </set>
       <set comment="band 5">
        <r>  0.0000  0.0000  0.0026  0.0000  0.0000  0.6395  0.0000  0.3452  0.0000 </r>
       </set>
       <set comment="band 6">
        <r>  0.1347  0.0427  0.0000  0.3916  0.0293  0.0000  0.0463  0.0000  0.2239 </r>
       </set>
       <set comment="band 7">
        <r>  0.1267  0.4527  0.0000  0.0000  0.1768  0.0000  0.0569  0.0000  0.0509 </r>
       </set>
       <set comment="band 8">
        <r>  0.0000  0.0000  0.6561  0.0000  0.0000  0.0307  0.0000  0.1566  0.0000 </r>
       </set>
       <set comment="band 9">
        <r>  0.0810  0.0025  0.0000  0.0047  0.0082  0.0000  0.7372  0.0000  0.0194 </r>
       </set>
       <set comment="band 10">
        <r>  0.0820  0.1059  0.0000  0.0001  0.0093  0.0000  0.0000  0.0000  0.5710 </r>
       </set>
       <set comment="band 11">
        <r>  0.2770  0.0627  0.0000  0.2793  0.0137  0.0000  0.0934  0.0000  0.1154 </r>
       </set>
       <set comment="band 12">
        <r>  0.0000  0.0000  0.0700  0.0000  0.0000  0.5405  0.0000  0.2635  0.0000 </r>
       </set>
      </set>
      <set comment="kpoint 25">
       <set comment="band 1">
        <r>  0.0000  0.0189  0.0000  0.0189  0.0000  0.0037  0.0000  0.0037  0.8245 </r>
       </set>
       <set comment="band 2">
        <r>  0.0000  0.0063  0.0252  0.0063  0.0049  0.0012  0.8245  0.0012  0.0000 </r>
       </set>
       <set comment="band 3">
        <r>  0.0173  0.0134  0.0134  0.0134  0.2997  0.2997  0.0000  0.2997  0.0000 </r>
       </set>
       <set comment="band 4">
        <r>  0.0000  0.0035  0.0138  0.0035  0.6292  0.1573  0.0159  0.1573  0.0000 </r>
       </set>
       <set comment="band 5">
        <r>  0.0000  0.0104  0.0000  0.0104  0.0000  0.4719  0.0000  0.4719  0.0159 </r>
       </set>
       <set comment="band 6">
        <r>  0.0000  0.3076  0.0000  0.3076  0.0000  0.0291  0.0000  0.0291  0.1764 </r>
       </set>
       <set comment="band 7">
        <r>  0.0000  0.1025  0.4101  0.1025  0.0388  0.0097  0.1764  0.0097  0.0000 </r>
       </set>
       <set comment="band 8">
        <r>  0.2617  0.1329  0.1329  0.1329  0.0534  0.0534  0.0000  0.0534  0.0000 </r>
       </set>
       <set comment="band 9">
        <r>  0.0000  0.0140  0.0560  0.0140  0.0053  0.0013  0.7785  0.0013  0.0000 </r>
       </set>
       <set comment="band 10">
        <r>  0.0000  0.0420  0.0000  0.0420  0.0000  0.0040  0.0000  0.0040  0.7785 </r>
       </set>
       <set comment="band 11">
        <r>  0.4755  0.1009  0.1009  0.1009  0.0036  0.0036  0.0000  0.0036  0.0000 </r>
       </set>
       <set comment="band 12">
        <r>  0.0357  0.0177  0.0177  0.0177  0.2300  0.2300  0.0000  0.2300  0.0000 </r>
       </set>
      </set>
      <set comment="kpoint 26">
       <set comment="band 1">
        <r>  0.0013  0.0000  0.0000  0.0257  0.0000  0.0000  0.2105  0.0000  0.6316 </r>
       </set>
       <set comment="band 2">
        <r>  0.0000  0.0000  0.0000  0.0000  0.0000  0.0000  0.6542  0.0000  0.2181 </r>
       </set>
       <set comment="band 3">
        <r>  0.0000  0.0108  0.0108  0.0000  0.4788  0.0000  0.0000  0.4787  0.0000 </r>
       </set>
       <set comment="band 4">
        <r>  0.0000  0.0108  0.0108  0.0000  0.4787  0.0000  0.0000  0.4788  0.0000 </r>
       </set>
       <set comment="band 5">
        <r>  0.0000  0.0000  0.0000  0.0000  0.0000  0.9873  0.0000  0.0000  0.0000 </r>
       </set>
       <set comment="band 6">
        <r>  0.0853  0.0000  0.0000  0.6061  0.0000  0.0000  0.0302  0.0000  0.0906 </r>
       </set>
       <set comment="band 7">
        <r>  0.0000  0.3660  0.3660  0.0000  0.0293  0.0000  0.0000  0.0293  0.0000 </r>
       </set>
       <set comment="band 8">
        <r>  0.0000  0.3660  0.3660  0.0000  0.0293  0.0000  0.0000  0.0293  0.0000 </r>
       </set>
       <set comment="band 9">
        <r>  0.0000  0.0000  0.0000  0.0000  0.0000  0.0000  0.7355  0.0000  0.2452 </r>
       </set>
       <set comment="band 10">
        <r>  0.0653  0.0000  0.0000  0.0194  0.0000  0.0000  0.2061  0.0000  0.6183 </r>
       </set>
       <set comment="band 11">
        <r>  0.6283  0.0000  0.0000  0.1241  0.0000  0.0000  0.0116  0.0000  0.0349 </r>
       </set>
       <set comment="band 12">
        <r>  0.0000  0.0000  0.0000  0.0000  0.0000  0.2923  0.0000  0.0000  0.0000 </r>
       </set>
      </set>
     </set>
    </set>
   </array>
  </projected>
 </calculation>
 <structure name="finalpos" >
  <crystal>
   <varray name="basis" >
    <v>      -1.40000000       1.40000000       1.40000000 </v>
    <v>       1.40000000      -1.40000000       1.40000000 </v>
    <v>       1.40000000       1.40000000      -1.40000000 </v>
   </varray>
   <i name="volume">     10.97600000 </i>
   <varray name="rec_basis" >
    <v>       0.00000000       0.35714286       0.35714286 </v>
    <v>       0.35714286       0.00000000       0.35714286 </v>
    <v>       0.35714286       0.35714286       0.00000000 </v>
   </varray>
  </crystal>
  <varray name="positions" >
   <v>       0.00000000       0.00000000       0.00000000 </v>
  </varray>
 </structure>
</modeling>
